MODEL 1
REMARK VINA RESULT:      -7.4      0.000      0.000
REMARK SMILES O=[13C](O)/[13CH]=[13CH]/c1cccc(O)c1
REMARK SMILES IDX 5 1 4 2 6 3 8 4 7 5 9 6 10 7 12 8 11 9 2 11 1 12 3 13
REMARK H PARENT 11 10 3 14
ROOT
ATOM      1  C   UNL     1       5.242  -2.605 -22.079  1.00  0.00     0.016 C 
ATOM      2  C   UNL     1       5.993  -1.963 -21.169  1.00  0.00     0.094 C 
ENDROOT
BRANCH   1   3
ATOM      3  C   UNL     1       4.669  -1.944 -23.257  1.00  0.00    -0.022 A 
ATOM      4  C   UNL     1       2.695  -1.333 -24.535  1.00  0.00     0.004 A 
ATOM      5  C   UNL     1       3.277  -1.939 -23.418  1.00  0.00     0.008 A 
ATOM      6  C   UNL     1       3.502  -0.742 -25.504  1.00  0.00     0.046 A 
ATOM      7  C   UNL     1       4.882  -0.765 -25.356  1.00  0.00     0.116 A 
ATOM      8  C   UNL     1       5.476  -1.362 -24.245  1.00  0.00     0.054 A 
BRANCH   7   9
ATOM      9  O   UNL     1       5.633  -0.189 -26.339  1.00  0.00    -0.508 OA
ATOM     10  H   UNL     1       5.282  -0.460 -27.203  1.00  0.00     0.293 HD
ENDBRANCH   7   9
ENDBRANCH   1   3
BRANCH   2  11
ATOM     11  C   UNL     1       6.512  -2.710 -20.007  1.00  0.00     0.328 C 
ATOM     12  O   UNL     1       5.992  -3.705 -19.533  1.00  0.00    -0.247 OA
BRANCH  11  13
ATOM     13  O   UNL     1       7.645  -2.166 -19.522  1.00  0.00    -0.478 OA
ATOM     14  H   UNL     1       7.958  -2.529 -18.673  1.00  0.00     0.297 HD
ENDBRANCH  11  13
ENDBRANCH   2  11
TORSDOF 4
ENDMDL
MODEL 2
REMARK VINA RESULT:      -6.7      2.624      6.355
REMARK SMILES O=[13C](O)/[13CH]=[13CH]/c1cccc(O)c1
REMARK SMILES IDX 5 1 4 2 6 3 8 4 7 5 9 6 10 7 12 8 11 9 2 11 1 12 3 13
REMARK H PARENT 11 10 3 14
ROOT
ATOM      1  C   UNL     1       6.088  -2.385 -20.785  1.00  0.00     0.016 C 
ATOM      2  C   UNL     1       5.357  -1.667 -21.653  1.00  0.00     0.094 C 
ENDROOT
BRANCH   1   3
ATOM      3  C   UNL     1       6.611  -1.836 -19.529  1.00  0.00    -0.022 A 
ATOM      4  C   UNL     1       8.330  -0.558 -18.383  1.00  0.00     0.004 A 
ATOM      5  C   UNL     1       7.793  -1.084 -19.561  1.00  0.00     0.008 A 
ATOM      6  C   UNL     1       7.697  -0.792 -17.165  1.00  0.00     0.046 A 
ATOM      7  C   UNL     1       6.537  -1.554 -17.129  1.00  0.00     0.116 A 
ATOM      8  C   UNL     1       5.988  -2.082 -18.297  1.00  0.00     0.054 A 
BRANCH   7   9
ATOM      9  O   UNL     1       5.961  -1.772 -15.912  1.00  0.00    -0.508 OA
ATOM     10  H   UNL     1       6.428  -1.245 -15.243  1.00  0.00     0.293 HD
ENDBRANCH   7   9
ENDBRANCH   1   3
BRANCH   2  11
ATOM     11  C   UNL     1       4.889  -2.305 -22.899  1.00  0.00     0.328 C 
ATOM     12  O   UNL     1       4.199  -3.308 -22.949  1.00  0.00    -0.247 OA
BRANCH  11  13
ATOM     13  O   UNL     1       5.312  -1.644 -23.994  1.00  0.00    -0.478 OA
ATOM     14  H   UNL     1       6.257  -1.745 -24.210  1.00  0.00     0.297 HD
ENDBRANCH  11  13
ENDBRANCH   2  11
TORSDOF 4
ENDMDL
MODEL 3
REMARK VINA RESULT:      -6.5      2.461      6.067
REMARK SMILES O=[13C](O)/[13CH]=[13CH]/c1cccc(O)c1
REMARK SMILES IDX 5 1 4 2 6 3 8 4 7 5 9 6 10 7 12 8 11 9 2 11 1 12 3 13
REMARK H PARENT 11 10 3 14
ROOT
ATOM      1  C   UNL     1       6.075  -2.440 -20.898  1.00  0.00     0.016 C 
ATOM      2  C   UNL     1       5.281  -1.698 -21.687  1.00  0.00     0.094 C 
ENDROOT
BRANCH   1   3
ATOM      3  C   UNL     1       6.482  -2.027 -19.551  1.00  0.00    -0.022 A 
ATOM      4  C   UNL     1       6.277  -2.308 -17.146  1.00  0.00     0.004 A 
ATOM      5  C   UNL     1       5.925  -2.684 -18.445  1.00  0.00     0.008 A 
ATOM      6  C   UNL     1       7.176  -1.264 -16.944  1.00  0.00     0.046 A 
ATOM      7  C   UNL     1       7.712  -0.598 -18.038  1.00  0.00     0.116 A 
ATOM      8  C   UNL     1       7.373  -0.965 -19.339  1.00  0.00     0.054 A 
BRANCH   7   9
ATOM      9  O   UNL     1       8.574   0.431 -17.792  1.00  0.00    -0.508 OA
ATOM     10  H   UNL     1       9.207   0.494 -18.526  1.00  0.00     0.293 HD
ENDBRANCH   7   9
ENDBRANCH   1   3
BRANCH   2  11
ATOM     11  C   UNL     1       4.941  -2.191 -23.035  1.00  0.00     0.328 C 
ATOM     12  O   UNL     1       5.318  -1.682 -24.076  1.00  0.00    -0.247 OA
BRANCH  11  13
ATOM     13  O   UNL     1       4.158  -3.287 -22.989  1.00  0.00    -0.478 OA
ATOM     14  H   UNL     1       4.334  -3.961 -23.671  1.00  0.00     0.297 HD
ENDBRANCH  11  13
ENDBRANCH   2  11
TORSDOF 4
ENDMDL
MODEL 4
REMARK VINA RESULT:      -6.5      2.046      5.741
REMARK SMILES O=[13C](O)/[13CH]=[13CH]/c1cccc(O)c1
REMARK SMILES IDX 5 1 4 2 6 3 8 4 7 5 9 6 10 7 12 8 11 9 2 11 1 12 3 13
REMARK H PARENT 11 10 3 14
ROOT
ATOM      1  C   UNL     1       5.508   0.011 -26.088  1.00  0.00     0.016 C 
ATOM      2  C   UNL     1       5.328  -0.104 -27.414  1.00  0.00     0.094 C 
ENDROOT
BRANCH   1   3
ATOM      3  C   UNL     1       4.735  -0.754 -25.104  1.00  0.00    -0.022 A 
ATOM      4  C   UNL     1       2.566  -1.436 -24.247  1.00  0.00     0.004 A 
ATOM      5  C   UNL     1       3.336  -0.732 -25.177  1.00  0.00     0.008 A 
ATOM      6  C   UNL     1       3.190  -2.155 -23.230  1.00  0.00     0.046 A 
ATOM      7  C   UNL     1       4.576  -2.161 -23.144  1.00  0.00     0.116 A 
ATOM      8  C   UNL     1       5.356  -1.466 -24.067  1.00  0.00     0.054 A 
BRANCH   7   9
ATOM      9  O   UNL     1       5.143  -2.864 -22.122  1.00  0.00    -0.508 OA
ATOM     10  H   UNL     1       4.916  -3.804 -22.222  1.00  0.00     0.293 HD
ENDBRANCH   7   9
ENDBRANCH   1   3
BRANCH   2  11
ATOM     11  C   UNL     1       6.143   0.721 -28.326  1.00  0.00     0.328 C 
ATOM     12  O   UNL     1       5.939   0.845 -29.521  1.00  0.00    -0.247 OA
BRANCH  11  13
ATOM     13  O   UNL     1       7.155   1.336 -27.682  1.00  0.00    -0.478 OA
ATOM     14  H   UNL     1       7.420   0.936 -26.833  1.00  0.00     0.297 HD
ENDBRANCH  11  13
ENDBRANCH   2  11
TORSDOF 4
ENDMDL
MODEL 5
REMARK VINA RESULT:      -6.1     13.504     16.494
REMARK SMILES O=[13C](O)/[13CH]=[13CH]/c1cccc(O)c1
REMARK SMILES IDX 5 1 4 2 6 3 8 4 7 5 9 6 10 7 12 8 11 9 2 11 1 12 3 13
REMARK H PARENT 11 10 3 14
ROOT
ATOM      1  C   UNL     1      -8.565   1.716 -31.942  1.00  0.00     0.016 C 
ATOM      2  C   UNL     1      -8.928   0.815 -32.869  1.00  0.00     0.094 C 
ENDROOT
BRANCH   1   3
ATOM      3  C   UNL     1      -7.198   1.829 -31.423  1.00  0.00    -0.022 A 
ATOM      4  C   UNL     1      -5.710   2.518 -29.630  1.00  0.00     0.004 A 
ATOM      5  C   UNL     1      -7.000   2.380 -30.150  1.00  0.00     0.008 A 
ATOM      6  C   UNL     1      -4.610   2.119 -30.384  1.00  0.00     0.046 A 
ATOM      7  C   UNL     1      -4.803   1.592 -31.654  1.00  0.00     0.116 A 
ATOM      8  C   UNL     1      -6.084   1.445 -32.184  1.00  0.00     0.054 A 
BRANCH   7   9
ATOM      9  O   UNL     1      -3.695   1.230 -32.364  1.00  0.00    -0.508 OA
ATOM     10  H   UNL     1      -3.281   0.465 -31.933  1.00  0.00     0.293 HD
ENDBRANCH   7   9
ENDBRANCH   1   3
BRANCH   2  11
ATOM     11  C   UNL     1     -10.334   0.768 -33.316  1.00  0.00     0.328 C 
ATOM     12  O   UNL     1     -10.854  -0.183 -33.873  1.00  0.00    -0.247 OA
BRANCH  11  13
ATOM     13  O   UNL     1     -10.992   1.909 -33.033  1.00  0.00    -0.478 OA
ATOM     14  H   UNL     1     -10.557   2.731 -33.326  1.00  0.00     0.297 HD
ENDBRANCH  11  13
ENDBRANCH   2  11
TORSDOF 4
ENDMDL
MODEL 6
REMARK VINA RESULT:      -6.0      4.126      7.442
REMARK SMILES O=[13C](O)/[13CH]=[13CH]/c1cccc(O)c1
REMARK SMILES IDX 5 1 4 2 6 3 8 4 7 5 9 6 10 7 12 8 11 9 2 11 1 12 3 13
REMARK H PARENT 11 10 3 14
ROOT
ATOM      1  C   UNL     1       7.827  -1.236 -19.117  1.00  0.00     0.016 C 
ATOM      2  C   UNL     1       6.546  -1.532 -19.391  1.00  0.00     0.094 C 
ENDROOT
BRANCH   1   3
ATOM      3  C   UNL     1       8.235  -0.419 -17.969  1.00  0.00    -0.022 A 
ATOM      4  C   UNL     1       9.711  -0.110 -16.064  1.00  0.00     0.004 A 
ATOM      5  C   UNL     1       9.304  -0.854 -17.175  1.00  0.00     0.008 A 
ATOM      6  C   UNL     1       9.043   1.066 -15.733  1.00  0.00     0.046 A 
ATOM      7  C   UNL     1       7.970   1.488 -16.507  1.00  0.00     0.116 A 
ATOM      8  C   UNL     1       7.556   0.758 -17.620  1.00  0.00     0.054 A 
BRANCH   7   9
ATOM      9  O   UNL     1       7.335   2.637 -16.135  1.00  0.00    -0.508 OA
ATOM     10  H   UNL     1       7.150   3.166 -16.928  1.00  0.00     0.293 HD
ENDBRANCH   7   9
ENDBRANCH   1   3
BRANCH   2  11
ATOM     11  C   UNL     1       6.234  -2.348 -20.580  1.00  0.00     0.328 C 
ATOM     12  O   UNL     1       5.601  -1.956 -21.545  1.00  0.00    -0.247 OA
BRANCH  11  13
ATOM     13  O   UNL     1       6.737  -3.594 -20.484  1.00  0.00    -0.478 OA
ATOM     14  H   UNL     1       7.569  -3.752 -20.966  1.00  0.00     0.297 HD
ENDBRANCH  11  13
ENDBRANCH   2  11
TORSDOF 4
ENDMDL
MODEL 7
REMARK VINA RESULT:      -5.9      2.906      4.410
REMARK SMILES O=[13C](O)/[13CH]=[13CH]/c1cccc(O)c1
REMARK SMILES IDX 5 1 4 2 6 3 8 4 7 5 9 6 10 7 12 8 11 9 2 11 1 12 3 13
REMARK H PARENT 11 10 3 14
ROOT
ATOM      1  C   UNL     1       4.728  -0.463 -25.088  1.00  0.00     0.016 C 
ATOM      2  C   UNL     1       4.857  -1.739 -24.690  1.00  0.00     0.094 C 
ENDROOT
BRANCH   1   3
ATOM      3  C   UNL     1       5.446   0.096 -26.239  1.00  0.00    -0.022 A 
ATOM      4  C   UNL     1       7.180   1.573 -27.082  1.00  0.00     0.004 A 
ATOM      5  C   UNL     1       6.484   1.008 -26.010  1.00  0.00     0.008 A 
ATOM      6  C   UNL     1       6.834   1.240 -28.389  1.00  0.00     0.046 A 
ATOM      7  C   UNL     1       5.791   0.351 -28.618  1.00  0.00     0.116 A 
ATOM      8  C   UNL     1       5.091  -0.223 -27.558  1.00  0.00     0.054 A 
BRANCH   7   9
ATOM      9  O   UNL     1       5.475   0.068 -29.914  1.00  0.00    -0.508 OA
ATOM     10  H   UNL     1       5.462   0.895 -30.423  1.00  0.00     0.293 HD
ENDBRANCH   7   9
ENDBRANCH   1   3
BRANCH   2  11
ATOM     11  C   UNL     1       4.105  -2.205 -23.508  1.00  0.00     0.328 C 
ATOM     12  O   UNL     1       4.575  -2.876 -22.606  1.00  0.00    -0.247 OA
BRANCH  11  13
ATOM     13  O   UNL     1       2.821  -1.797 -23.535  1.00  0.00    -0.478 OA
ATOM     14  H   UNL     1       2.684  -0.839 -23.650  1.00  0.00     0.297 HD
ENDBRANCH  11  13
ENDBRANCH   2  11
TORSDOF 4
ENDMDL
MODEL 8
REMARK VINA RESULT:      -5.9      9.614     10.794
REMARK SMILES O=[13C](O)/[13CH]=[13CH]/c1cccc(O)c1
REMARK SMILES IDX 5 1 4 2 6 3 8 4 7 5 9 6 10 7 12 8 11 9 2 11 1 12 3 13
REMARK H PARENT 11 10 3 14
ROOT
ATOM      1  C   UNL     1      -5.490  -1.204 -26.050  1.00  0.00     0.016 C 
ATOM      2  C   UNL     1      -5.562  -0.578 -24.864  1.00  0.00     0.094 C 
ENDROOT
BRANCH   1   3
ATOM      3  C   UNL     1      -4.446  -0.925 -27.043  1.00  0.00    -0.022 A 
ATOM      4  C   UNL     1      -3.360  -1.522 -29.132  1.00  0.00     0.004 A 
ATOM      5  C   UNL     1      -4.351  -1.748 -28.173  1.00  0.00     0.008 A 
ATOM      6  C   UNL     1      -2.450  -0.482 -28.961  1.00  0.00     0.046 A 
ATOM      7  C   UNL     1      -2.530   0.321 -27.830  1.00  0.00     0.116 A 
ATOM      8  C   UNL     1      -3.516   0.110 -26.867  1.00  0.00     0.054 A 
BRANCH   7   9
ATOM      9  O   UNL     1      -1.607   1.317 -27.695  1.00  0.00    -0.508 OA
ATOM     10  H   UNL     1      -2.061   2.174 -27.728  1.00  0.00     0.293 HD
ENDBRANCH   7   9
ENDBRANCH   1   3
BRANCH   2  11
ATOM     11  C   UNL     1      -6.660  -0.916 -23.938  1.00  0.00     0.328 C 
ATOM     12  O   UNL     1      -7.532  -0.142 -23.582  1.00  0.00    -0.247 OA
BRANCH  11  13
ATOM     13  O   UNL     1      -6.596  -2.196 -23.523  1.00  0.00    -0.478 OA
ATOM     14  H   UNL     1      -6.759  -2.341 -22.574  1.00  0.00     0.297 HD
ENDBRANCH  11  13
ENDBRANCH   2  11
TORSDOF 4
ENDMDL
MODEL 9
REMARK VINA RESULT:      -5.9     13.355     16.319
REMARK SMILES O=[13C](O)/[13CH]=[13CH]/c1cccc(O)c1
REMARK SMILES IDX 5 1 4 2 6 3 8 4 7 5 9 6 10 7 12 8 11 9 2 11 1 12 3 13
REMARK H PARENT 11 10 3 14
ROOT
ATOM      1  C   UNL     1      -8.469   0.603 -31.724  1.00  0.00     0.016 C 
ATOM      2  C   UNL     1      -9.062   0.512 -32.925  1.00  0.00     0.094 C 
ENDROOT
BRANCH   1   3
ATOM      3  C   UNL     1      -7.031   0.396 -31.520  1.00  0.00    -0.022 A 
ATOM      4  C   UNL     1      -5.249  -0.777 -30.357  1.00  0.00     0.004 A 
ATOM      5  C   UNL     1      -6.611  -0.563 -30.589  1.00  0.00     0.008 A 
ATOM      6  C   UNL     1      -4.300  -0.025 -31.044  1.00  0.00     0.046 A 
ATOM      7  C   UNL     1      -4.715   0.940 -31.953  1.00  0.00     0.116 A 
ATOM      8  C   UNL     1      -6.070   1.162 -32.197  1.00  0.00     0.054 A 
BRANCH   7   9
ATOM      9  O   UNL     1      -3.751   1.665 -32.590  1.00  0.00    -0.508 OA
ATOM     10  H   UNL     1      -3.963   1.708 -33.537  1.00  0.00     0.293 HD
ENDBRANCH   7   9
ENDBRANCH   1   3
BRANCH   2  11
ATOM     11  C   UNL     1     -10.519   0.721 -33.027  1.00  0.00     0.328 C 
ATOM     12  O   UNL     1     -11.347  -0.172 -33.081  1.00  0.00    -0.247 OA
BRANCH  11  13
ATOM     13  O   UNL     1     -10.841   2.029 -33.049  1.00  0.00    -0.478 OA
ATOM     14  H   UNL     1     -10.370   2.591 -32.407  1.00  0.00     0.297 HD
ENDBRANCH  11  13
ENDBRANCH   2  11
TORSDOF 4
ENDMDL
MODEL 10
REMARK VINA RESULT:      -5.9     11.720     13.071
REMARK SMILES O=[13C](O)/[13CH]=[13CH]/c1cccc(O)c1
REMARK SMILES IDX 5 1 4 2 6 3 8 4 7 5 9 6 10 7 12 8 11 9 2 11 1 12 3 13
REMARK H PARENT 11 10 3 14
ROOT
ATOM      1  C   UNL     1      -3.654 -10.128 -27.512  1.00  0.00     0.016 C 
ATOM      2  C   UNL     1      -4.461 -10.766 -26.648  1.00  0.00     0.094 C 
ENDROOT
BRANCH   1   3
ATOM      3  C   UNL     1      -2.214  -9.959 -27.291  1.00  0.00    -0.022 A 
ATOM      4  C   UNL     1      -0.281  -8.487 -27.253  1.00  0.00     0.004 A 
ATOM      5  C   UNL     1      -1.652  -8.684 -27.441  1.00  0.00     0.008 A 
ATOM      6  C   UNL     1       0.538  -9.566 -26.928  1.00  0.00     0.046 A 
ATOM      7  C   UNL     1      -0.014 -10.833 -26.800  1.00  0.00     0.116 A 
ATOM      8  C   UNL     1      -1.380 -11.044 -26.981  1.00  0.00     0.054 A 
BRANCH   7   9
ATOM      9  O   UNL     1       0.829 -11.863 -26.499  1.00  0.00    -0.508 OA
ATOM     10  H   UNL     1       0.783 -12.038 -25.544  1.00  0.00     0.293 HD
ENDBRANCH   7   9
ENDBRANCH   1   3
BRANCH   2  11
ATOM     11  C   UNL     1      -5.901 -10.870 -26.951  1.00  0.00     0.328 C 
ATOM     12  O   UNL     1      -6.586 -11.856 -26.738  1.00  0.00    -0.247 OA
BRANCH  11  13
ATOM     13  O   UNL     1      -6.387  -9.737 -27.496  1.00  0.00    -0.478 OA
ATOM     14  H   UNL     1      -6.677  -9.806 -28.423  1.00  0.00     0.297 HD
ENDBRANCH  11  13
ENDBRANCH   2  11
TORSDOF 4
ENDMDL
