MODEL 1
REMARK VINA RESULT:      -8.2      0.000      0.000
REMARK SMILES N#Cc1ccc(CCCC[N+](=O)[O-])c(F)c1
REMARK SMILES IDX 9 1 10 2 11 3 12 4 13 5 8 6 7 7 6 8 5 9 14 10 4 11 16 12
REMARK SMILES IDX 3 13 2 14 1 15 15 16
REMARK H PARENT
ROOT
ATOM      1  C   UNL     1       4.826  -2.447 -22.652  1.00  0.00     0.079 C 
ENDROOT
BRANCH   1   2
ATOM      2  C   UNL     1       5.032  -1.764 -23.997  1.00  0.00     0.424 C 
BRANCH   2   3
ATOM      3  N   UNL     1       3.700  -1.303 -24.503  1.00  0.00     0.019 N 
ATOM      4  O   UNL     1       3.694  -0.635 -25.543  1.00  0.00    -0.265 OA
ATOM      5  O   UNL     1       2.705  -1.613 -23.834  1.00  0.00    -0.265 OA
ENDBRANCH   2   3
ENDBRANCH   1   2
BRANCH   1   6
ATOM      6  C   UNL     1       5.620  -1.743 -21.550  1.00  0.00     0.012 C 
BRANCH   6   7
ATOM      7  C   UNL     1       6.048  -2.725 -20.457  1.00  0.00     0.039 C 
BRANCH   7   8
ATOM      8  C   UNL     1       6.666  -2.014 -19.281  1.00  0.00    -0.012 A 
ATOM      9  C   UNL     1       7.594  -0.983 -19.474  1.00  0.00     0.008 A 
ATOM     10  C   UNL     1       6.342  -2.390 -17.974  1.00  0.00     0.127 A 
ATOM     11  C   UNL     1       8.171  -0.341 -18.374  1.00  0.00     0.020 A 
ATOM     12  C   UNL     1       6.911  -1.757 -16.872  1.00  0.00     0.059 A 
ATOM     13  C   UNL     1       7.830  -0.725 -17.071  1.00  0.00     0.055 A 
ATOM     14  C   UNL     1       8.424  -0.065 -15.947  1.00  0.00     0.099 C 
ATOM     15  N   UNL     1       8.908   0.469 -15.038  1.00  0.00    -0.192 NA
ATOM     16  F   UNL     1       5.469  -3.385 -17.764  1.00  0.00    -0.207 F 
ENDBRANCH   7   8
ENDBRANCH   6   7
ENDBRANCH   1   6
TORSDOF 5
ENDMDL
MODEL 2
REMARK VINA RESULT:      -7.3     13.325     14.697
REMARK SMILES N#Cc1ccc(CCCC[N+](=O)[O-])c(F)c1
REMARK SMILES IDX 9 1 10 2 11 3 12 4 13 5 8 6 7 7 6 8 5 9 14 10 4 11 16 12
REMARK SMILES IDX 3 13 2 14 1 15 15 16
REMARK H PARENT
ROOT
ATOM      1  C   UNL     1      -4.758  -9.466 -26.940  1.00  0.00     0.079 C 
ENDROOT
BRANCH   1   2
ATOM      2  C   UNL     1      -5.074 -10.937 -26.702  1.00  0.00     0.424 C 
BRANCH   2   3
ATOM      3  N   UNL     1      -6.024 -11.036 -25.549  1.00  0.00     0.019 N 
ATOM      4  O   UNL     1      -6.381  -9.975 -25.022  1.00  0.00    -0.265 OA
ATOM      5  O   UNL     1      -6.370 -12.172 -25.199  1.00  0.00    -0.265 OA
ENDBRANCH   2   3
ENDBRANCH   1   2
BRANCH   1   6
ATOM      6  C   UNL     1      -4.052  -9.266 -28.282  1.00  0.00     0.012 C 
BRANCH   6   7
ATOM      7  C   UNL     1      -2.642  -8.701 -28.092  1.00  0.00     0.039 C 
BRANCH   7   8
ATOM      8  C   UNL     1      -1.722  -9.705 -27.447  1.00  0.00    -0.012 A 
ATOM      9  C   UNL     1      -1.560 -10.984 -27.995  1.00  0.00     0.008 A 
ATOM     10  C   UNL     1      -1.032  -9.385 -26.274  1.00  0.00     0.127 A 
ATOM     11  C   UNL     1      -0.714 -11.911 -27.379  1.00  0.00     0.020 A 
ATOM     12  C   UNL     1      -0.187 -10.301 -25.654  1.00  0.00     0.059 A 
ATOM     13  C   UNL     1      -0.025 -11.572 -26.209  1.00  0.00     0.055 A 
ATOM     14  C   UNL     1       0.841 -12.525 -25.580  1.00  0.00     0.099 C 
ATOM     15  N   UNL     1       1.540 -13.299 -25.072  1.00  0.00    -0.192 NA
ATOM     16  F   UNL     1      -1.183  -8.173 -25.723  1.00  0.00    -0.207 F 
ENDBRANCH   7   8
ENDBRANCH   6   7
ENDBRANCH   1   6
TORSDOF 5
ENDMDL
MODEL 3
REMARK VINA RESULT:      -6.9      1.801      2.454
REMARK SMILES N#Cc1ccc(CCCC[N+](=O)[O-])c(F)c1
REMARK SMILES IDX 9 1 10 2 11 3 12 4 13 5 8 6 7 7 6 8 5 9 14 10 4 11 16 12
REMARK SMILES IDX 3 13 2 14 1 15 15 16
REMARK H PARENT
ROOT
ATOM      1  C   UNL     1       5.824  -3.146 -21.019  1.00  0.00     0.079 C 
ENDROOT
BRANCH   1   2
ATOM      2  C   UNL     1       5.647  -2.004 -22.010  1.00  0.00     0.424 C 
BRANCH   2   3
ATOM      3  N   UNL     1       4.549  -2.369 -22.961  1.00  0.00     0.019 N 
ATOM      4  O   UNL     1       4.016  -3.474 -22.806  1.00  0.00    -0.265 OA
ATOM      5  O   UNL     1       4.267  -1.544 -23.840  1.00  0.00    -0.265 OA
ENDBRANCH   2   3
ENDBRANCH   1   2
BRANCH   1   6
ATOM      6  C   UNL     1       6.413  -2.643 -19.700  1.00  0.00     0.012 C 
BRANCH   6   7
ATOM      7  C   UNL     1       6.628  -1.128 -19.728  1.00  0.00     0.039 C 
BRANCH   7   8
ATOM      8  C   UNL     1       7.398  -0.652 -18.523  1.00  0.00    -0.012 A 
ATOM      9  C   UNL     1       6.795   0.173 -17.566  1.00  0.00     0.008 A 
ATOM     10  C   UNL     1       8.740  -1.009 -18.352  1.00  0.00     0.127 A 
ATOM     11  C   UNL     1       7.524   0.618 -16.459  1.00  0.00     0.020 A 
ATOM     12  C   UNL     1       9.474  -0.571 -17.254  1.00  0.00     0.059 A 
ATOM     13  C   UNL     1       8.865   0.246 -16.301  1.00  0.00     0.055 A 
ATOM     14  C   UNL     1       9.610   0.705 -15.166  1.00  0.00     0.099 C 
ATOM     15  N   UNL     1      10.212   1.079 -14.247  1.00  0.00    -0.192 NA
ATOM     16  F   UNL     1       9.343  -1.784 -19.263  1.00  0.00    -0.207 F 
ENDBRANCH   7   8
ENDBRANCH   6   7
ENDBRANCH   1   6
TORSDOF 5
ENDMDL
MODEL 4
REMARK VINA RESULT:      -6.7     14.408     17.427
REMARK SMILES N#Cc1ccc(CCCC[N+](=O)[O-])c(F)c1
REMARK SMILES IDX 9 1 10 2 11 3 12 4 13 5 8 6 7 7 6 8 5 9 14 10 4 11 16 12
REMARK SMILES IDX 3 13 2 14 1 15 15 16
REMARK H PARENT
ROOT
ATOM      1  C   UNL     1      -8.575   0.643 -33.950  1.00  0.00     0.079 C 
ENDROOT
BRANCH   1   2
ATOM      2  C   UNL     1      -9.322  -0.218 -32.940  1.00  0.00     0.424 C 
BRANCH   2   3
ATOM      3  N   UNL     1     -10.743   0.252 -32.877  1.00  0.00     0.019 N 
ATOM      4  O   UNL     1     -10.938   1.469 -32.987  1.00  0.00    -0.265 OA
ATOM      5  O   UNL     1     -11.615  -0.610 -32.706  1.00  0.00    -0.265 OA
ENDBRANCH   2   3
ENDBRANCH   1   2
BRANCH   1   6
ATOM      6  C   UNL     1      -7.343   1.290 -33.315  1.00  0.00     0.012 C 
BRANCH   6   7
ATOM      7  C   UNL     1      -7.602   1.668 -31.855  1.00  0.00     0.039 C 
BRANCH   7   8
ATOM      8  C   UNL     1      -6.360   1.524 -31.014  1.00  0.00    -0.012 A 
ATOM      9  C   UNL     1      -5.710   2.651 -30.494  1.00  0.00     0.008 A 
ATOM     10  C   UNL     1      -5.820   0.260 -30.758  1.00  0.00     0.127 A 
ATOM     11  C   UNL     1      -4.551   2.503 -29.727  1.00  0.00     0.020 A 
ATOM     12  C   UNL     1      -4.666   0.103 -29.995  1.00  0.00     0.059 A 
ATOM     13  C   UNL     1      -4.027   1.229 -29.474  1.00  0.00     0.055 A 
ATOM     14  C   UNL     1      -2.838   1.082 -28.688  1.00  0.00     0.099 C 
ATOM     15  N   UNL     1      -1.875   0.966 -28.053  1.00  0.00    -0.192 NA
ATOM     16  F   UNL     1      -6.414  -0.832 -31.258  1.00  0.00    -0.207 F 
ENDBRANCH   7   8
ENDBRANCH   6   7
ENDBRANCH   1   6
TORSDOF 5
ENDMDL
MODEL 5
REMARK VINA RESULT:      -6.6     13.489     17.567
REMARK SMILES N#Cc1ccc(CCCC[N+](=O)[O-])c(F)c1
REMARK SMILES IDX 9 1 10 2 11 3 12 4 13 5 8 6 7 7 6 8 5 9 14 10 4 11 16 12
REMARK SMILES IDX 3 13 2 14 1 15 15 16
REMARK H PARENT
ROOT
ATOM      1  C   UNL     1      -3.685  -1.651 -28.691  1.00  0.00     0.079 C 
ENDROOT
BRANCH   1   2
ATOM      2  C   UNL     1      -2.663  -0.556 -28.959  1.00  0.00     0.424 C 
BRANCH   2   3
ATOM      3  N   UNL     1      -2.663   0.388 -27.795  1.00  0.00     0.019 N 
ATOM      4  O   UNL     1      -1.689   1.140 -27.682  1.00  0.00    -0.265 OA
ATOM      5  O   UNL     1      -3.632   0.334 -27.027  1.00  0.00    -0.265 OA
ENDBRANCH   2   3
ENDBRANCH   1   2
BRANCH   1   6
ATOM      6  C   UNL     1      -4.655  -1.797 -29.864  1.00  0.00     0.012 C 
BRANCH   6   7
ATOM      7  C   UNL     1      -4.904  -0.452 -30.552  1.00  0.00     0.039 C 
BRANCH   7   8
ATOM      8  C   UNL     1      -6.297  -0.368 -31.122  1.00  0.00    -0.012 A 
ATOM      9  C   UNL     1      -7.274  -1.309 -30.771  1.00  0.00     0.008 A 
ATOM     10  C   UNL     1      -6.631   0.639 -32.032  1.00  0.00     0.127 A 
ATOM     11  C   UNL     1      -8.557  -1.228 -31.318  1.00  0.00     0.020 A 
ATOM     12  C   UNL     1      -7.907   0.728 -32.582  1.00  0.00     0.059 A 
ATOM     13  C   UNL     1      -8.877  -0.209 -32.224  1.00  0.00     0.055 A 
ATOM     14  C   UNL     1     -10.194  -0.129 -32.783  1.00  0.00     0.099 C 
ATOM     15  N   UNL     1     -11.260  -0.068 -33.236  1.00  0.00    -0.192 NA
ATOM     16  F   UNL     1      -5.709   1.541 -32.395  1.00  0.00    -0.207 F 
ENDBRANCH   7   8
ENDBRANCH   6   7
ENDBRANCH   1   6
TORSDOF 5
ENDMDL
MODEL 6
REMARK VINA RESULT:      -6.4     14.254     17.284
REMARK SMILES N#Cc1ccc(CCCC[N+](=O)[O-])c(F)c1
REMARK SMILES IDX 9 1 10 2 11 3 12 4 13 5 8 6 7 7 6 8 5 9 14 10 4 11 16 12
REMARK SMILES IDX 3 13 2 14 1 15 15 16
REMARK H PARENT
ROOT
ATOM      1  C   UNL     1      -8.502   0.698 -33.865  1.00  0.00     0.079 C 
ENDROOT
BRANCH   1   2
ATOM      2  C   UNL     1      -9.388  -0.372 -33.243  1.00  0.00     0.424 C 
BRANCH   2   3
ATOM      3  N   UNL     1     -10.757   0.203 -33.044  1.00  0.00     0.019 N 
ATOM      4  O   UNL     1     -10.885   1.420 -33.217  1.00  0.00    -0.265 OA
ATOM      5  O   UNL     1     -11.654  -0.581 -32.709  1.00  0.00    -0.265 OA
ENDBRANCH   2   3
ENDBRANCH   1   2
BRANCH   1   6
ATOM      6  C   UNL     1      -7.500   1.243 -32.847  1.00  0.00     0.012 C 
BRANCH   6   7
ATOM      7  C   UNL     1      -7.565   0.465 -31.530  1.00  0.00     0.039 C 
BRANCH   7   8
ATOM      8  C   UNL     1      -6.276   0.572 -30.756  1.00  0.00    -0.012 A 
ATOM      9  C   UNL     1      -5.386  -0.508 -30.692  1.00  0.00     0.008 A 
ATOM     10  C   UNL     1      -5.957   1.746 -30.068  1.00  0.00     0.127 A 
ATOM     11  C   UNL     1      -4.201  -0.401 -29.959  1.00  0.00     0.020 A 
ATOM     12  C   UNL     1      -4.779   1.863 -29.336  1.00  0.00     0.059 A 
ATOM     13  C   UNL     1      -3.894   0.785 -29.280  1.00  0.00     0.055 A 
ATOM     14  C   UNL     1      -2.678   0.892 -28.530  1.00  0.00     0.099 C 
ATOM     15  N   UNL     1      -1.694   0.975 -27.921  1.00  0.00    -0.192 NA
ATOM     16  F   UNL     1      -6.800   2.787 -30.102  1.00  0.00    -0.207 F 
ENDBRANCH   7   8
ENDBRANCH   6   7
ENDBRANCH   1   6
TORSDOF 5
ENDMDL
MODEL 7
REMARK VINA RESULT:      -6.4      5.047      7.669
REMARK SMILES N#Cc1ccc(CCCC[N+](=O)[O-])c(F)c1
REMARK SMILES IDX 9 1 10 2 11 3 12 4 13 5 8 6 7 7 6 8 5 9 14 10 4 11 16 12
REMARK SMILES IDX 3 13 2 14 1 15 15 16
REMARK H PARENT
ROOT
ATOM      1  C   UNL     1      11.101   0.021 -15.683  1.00  0.00     0.079 C 
ENDROOT
BRANCH   1   2
ATOM      2  C   UNL     1      10.795   1.437 -15.213  1.00  0.00     0.424 C 
BRANCH   2   3
ATOM      3  N   UNL     1      11.870   2.347 -15.722  1.00  0.00     0.019 N 
ATOM      4  O   UNL     1      12.906   1.815 -16.139  1.00  0.00    -0.265 OA
ATOM      5  O   UNL     1      11.648   3.564 -15.674  1.00  0.00    -0.265 OA
ENDBRANCH   2   3
ENDBRANCH   1   2
BRANCH   1   6
ATOM      6  C   UNL     1       9.896  -0.898 -15.477  1.00  0.00     0.012 C 
BRANCH   6   7
ATOM      7  C   UNL     1       8.583  -0.175 -15.787  1.00  0.00     0.039 C 
BRANCH   7   8
ATOM      8  C   UNL     1       7.945  -0.697 -17.049  1.00  0.00    -0.012 A 
ATOM      9  C   UNL     1       8.562  -0.513 -18.293  1.00  0.00     0.008 A 
ATOM     10  C   UNL     1       6.712  -1.353 -17.001  1.00  0.00     0.127 A 
ATOM     11  C   UNL     1       7.952  -0.990 -19.457  1.00  0.00     0.020 A 
ATOM     12  C   UNL     1       6.097  -1.831 -18.155  1.00  0.00     0.059 A 
ATOM     13  C   UNL     1       6.720  -1.651 -19.391  1.00  0.00     0.055 A 
ATOM     14  C   UNL     1       6.098  -2.137 -20.587  1.00  0.00     0.099 C 
ATOM     15  N   UNL     1       5.595  -2.529 -21.556  1.00  0.00    -0.192 NA
ATOM     16  F   UNL     1       6.095  -1.526 -15.824  1.00  0.00    -0.207 F 
ENDBRANCH   7   8
ENDBRANCH   6   7
ENDBRANCH   1   6
TORSDOF 5
ENDMDL
MODEL 8
REMARK VINA RESULT:      -6.3     13.932     16.558
REMARK SMILES N#Cc1ccc(CCCC[N+](=O)[O-])c(F)c1
REMARK SMILES IDX 9 1 10 2 11 3 12 4 13 5 8 6 7 7 6 8 5 9 14 10 4 11 16 12
REMARK SMILES IDX 3 13 2 14 1 15 15 16
REMARK H PARENT
ROOT
ATOM      1  C   UNL     1      -9.246  -2.048 -31.265  1.00  0.00     0.079 C 
ENDROOT
BRANCH   1   2
ATOM      2  C   UNL     1      -9.292  -0.649 -31.864  1.00  0.00     0.424 C 
BRANCH   2   3
ATOM      3  N   UNL     1     -10.721  -0.201 -31.910  1.00  0.00     0.019 N 
ATOM      4  O   UNL     1     -11.237   0.143 -30.840  1.00  0.00    -0.265 OA
ATOM      5  O   UNL     1     -11.282  -0.222 -33.013  1.00  0.00    -0.265 OA
ENDBRANCH   2   3
ENDBRANCH   1   2
BRANCH   1   6
ATOM      6  C   UNL     1      -8.509  -2.049 -29.925  1.00  0.00     0.012 C 
BRANCH   6   7
ATOM      7  C   UNL     1      -7.189  -2.820 -30.015  1.00  0.00     0.039 C 
BRANCH   7   8
ATOM      8  C   UNL     1      -6.029  -1.995 -29.522  1.00  0.00    -0.012 A 
ATOM      9  C   UNL     1      -5.437  -2.259 -28.280  1.00  0.00     0.008 A 
ATOM     10  C   UNL     1      -5.537  -0.933 -30.288  1.00  0.00     0.127 A 
ATOM     11  C   UNL     1      -4.370  -1.477 -27.829  1.00  0.00     0.020 A 
ATOM     12  C   UNL     1      -4.474  -0.149 -29.847  1.00  0.00     0.059 A 
ATOM     13  C   UNL     1      -3.885  -0.422 -28.612  1.00  0.00     0.055 A 
ATOM     14  C   UNL     1      -2.791   0.378 -28.145  1.00  0.00     0.099 C 
ATOM     15  N   UNL     1      -1.907   1.025 -27.765  1.00  0.00    -0.192 NA
ATOM     16  F   UNL     1      -6.097  -0.651 -31.473  1.00  0.00    -0.207 F 
ENDBRANCH   7   8
ENDBRANCH   6   7
ENDBRANCH   1   6
TORSDOF 5
ENDMDL
MODEL 9
REMARK VINA RESULT:      -6.3     18.398     19.134
REMARK SMILES N#Cc1ccc(CCCC[N+](=O)[O-])c(F)c1
REMARK SMILES IDX 9 1 10 2 11 3 12 4 13 5 8 6 7 7 6 8 5 9 14 10 4 11 16 12
REMARK SMILES IDX 3 13 2 14 1 15 15 16
REMARK H PARENT
ROOT
ATOM      1  C   UNL     1      -9.252  -2.079 -31.434  1.00  0.00     0.079 C 
ENDROOT
BRANCH   1   2
ATOM      2  C   UNL     1      -9.300  -0.698 -32.074  1.00  0.00     0.424 C 
BRANCH   2   3
ATOM      3  N   UNL     1     -10.702  -0.180 -31.977  1.00  0.00     0.019 N 
ATOM      4  O   UNL     1     -11.074   0.230 -30.871  1.00  0.00    -0.265 OA
ATOM      5  O   UNL     1     -11.388  -0.215 -33.006  1.00  0.00    -0.265 OA
ENDBRANCH   2   3
ENDBRANCH   1   2
BRANCH   1   6
ATOM      6  C   UNL     1      -8.211  -2.129 -30.314  1.00  0.00     0.012 C 
BRANCH   6   7
ATOM      7  C   UNL     1      -7.936  -3.569 -29.873  1.00  0.00     0.039 C 
BRANCH   7   8
ATOM      8  C   UNL     1      -8.980  -4.063 -28.905  1.00  0.00    -0.012 A 
ATOM      9  C   UNL     1      -9.452  -3.238 -27.876  1.00  0.00     0.008 A 
ATOM     10  C   UNL     1      -9.479  -5.366 -29.003  1.00  0.00     0.127 A 
ATOM     11  C   UNL     1     -10.410  -3.714 -26.976  1.00  0.00     0.020 A 
ATOM     12  C   UNL     1     -10.433  -5.848 -28.111  1.00  0.00     0.059 A 
ATOM     13  C   UNL     1     -10.904  -5.019 -27.092  1.00  0.00     0.055 A 
ATOM     14  C   UNL     1     -11.885  -5.503 -26.167  1.00  0.00     0.099 C 
ATOM     15  N   UNL     1     -12.679  -5.893 -25.416  1.00  0.00    -0.192 NA
ATOM     16  F   UNL     1      -9.031  -6.179 -29.969  1.00  0.00    -0.207 F 
ENDBRANCH   7   8
ENDBRANCH   6   7
ENDBRANCH   1   6
TORSDOF 5
ENDMDL
MODEL 10
REMARK VINA RESULT:      -6.2     13.927     17.732
REMARK SMILES N#Cc1ccc(CCCC[N+](=O)[O-])c(F)c1
REMARK SMILES IDX 9 1 10 2 11 3 12 4 13 5 8 6 7 7 6 8 5 9 14 10 4 11 16 12
REMARK SMILES IDX 3 13 2 14 1 15 15 16
REMARK H PARENT
ROOT
ATOM      1  C   UNL     1      -4.506   1.930 -28.809  1.00  0.00     0.079 C 
ENDROOT
BRANCH   1   2
ATOM      2  C   UNL     1      -3.894   0.536 -28.834  1.00  0.00     0.424 C 
BRANCH   2   3
ATOM      3  N   UNL     1      -2.409   0.669 -28.687  1.00  0.00     0.019 N 
ATOM      4  O   UNL     1      -1.996   1.324 -27.722  1.00  0.00    -0.265 OA
ATOM      5  O   UNL     1      -1.706   0.126 -29.549  1.00  0.00    -0.265 OA
ENDBRANCH   2   3
ENDBRANCH   1   2
BRANCH   1   6
ATOM      6  C   UNL     1      -4.745   2.451 -30.227  1.00  0.00     0.012 C 
BRANCH   6   7
ATOM      7  C   UNL     1      -4.789   1.305 -31.241  1.00  0.00     0.039 C 
BRANCH   7   8
ATOM      8  C   UNL     1      -6.202   0.977 -31.650  1.00  0.00    -0.012 A 
ATOM      9  C   UNL     1      -6.996   1.924 -32.309  1.00  0.00     0.008 A 
ATOM     10  C   UNL     1      -6.753  -0.274 -31.357  1.00  0.00     0.127 A 
ATOM     11  C   UNL     1      -8.310   1.612 -32.670  1.00  0.00     0.020 A 
ATOM     12  C   UNL     1      -8.060  -0.594 -31.713  1.00  0.00     0.059 A 
ATOM     13  C   UNL     1      -8.844   0.352 -32.374  1.00  0.00     0.055 A 
ATOM     14  C   UNL     1     -10.192   0.036 -32.746  1.00  0.00     0.099 C 
ATOM     15  N   UNL     1     -11.283  -0.217 -33.046  1.00  0.00    -0.192 NA
ATOM     16  F   UNL     1      -6.018  -1.191 -30.713  1.00  0.00    -0.207 F 
ENDBRANCH   7   8
ENDBRANCH   6   7
ENDBRANCH   1   6
TORSDOF 5
ENDMDL
