MODEL 1
REMARK VINA RESULT:      -5.9      0.000      0.000
REMARK SMILES N#Cc1ccc([N+](=O)[O-])cc1
REMARK SMILES IDX 8 1 7 2 9 3 6 4 5 5 10 6 4 7 11 8 3 9 2 10 1 11
REMARK H PARENT
ROOT
ATOM      1  O   UNL     1       6.276  -3.518 -20.071  1.00  0.00    -0.258 OA
ATOM      2  N   UNL     1       6.285  -2.279 -20.083  1.00  0.00     0.062 N 
ATOM      3  O   UNL     1       5.815  -1.580 -20.991  1.00  0.00    -0.258 OA
ENDROOT
BRANCH   2   4
ATOM      4  C   UNL     1       6.898  -1.590 -18.940  1.00  0.00     0.269 A 
ATOM      5  C   UNL     1       6.316  -1.697 -17.669  1.00  0.00     0.087 A 
ATOM      6  C   UNL     1       8.064  -0.834 -19.127  1.00  0.00     0.087 A 
ATOM      7  C   UNL     1       6.904  -1.041 -16.583  1.00  0.00     0.026 A 
ATOM      8  C   UNL     1       8.645  -0.181 -18.034  1.00  0.00     0.026 A 
ATOM      9  C   UNL     1       8.069  -0.283 -16.762  1.00  0.00     0.052 A 
ATOM     10  C   UNL     1       8.669   0.387 -15.644  1.00  0.00     0.099 C 
ATOM     11  N   UNL     1       9.155   0.928 -14.741  1.00  0.00    -0.192 NA
ENDBRANCH   2   4
TORSDOF 1
ENDMDL
MODEL 2
REMARK VINA RESULT:      -5.7     14.774     15.926
REMARK SMILES N#Cc1ccc([N+](=O)[O-])cc1
REMARK SMILES IDX 8 1 7 2 9 3 6 4 5 5 10 6 4 7 11 8 3 9 2 10 1 11
REMARK H PARENT
ROOT
ATOM      1  O   UNL     1       1.081 -13.039 -24.228  1.00  0.00    -0.258 OA
ATOM      2  N   UNL     1       1.112 -12.969 -25.465  1.00  0.00     0.062 N 
ATOM      3  O   UNL     1       1.834 -13.666 -26.191  1.00  0.00    -0.258 OA
ENDROOT
BRANCH   2   4
ATOM      4  C   UNL     1       0.230 -11.991 -26.115  1.00  0.00     0.269 A 
ATOM      5  C   UNL     1      -0.547 -12.379 -27.217  1.00  0.00     0.087 A 
ATOM      6  C   UNL     1       0.170 -10.678 -25.629  1.00  0.00     0.087 A 
ATOM      7  C   UNL     1      -1.386 -11.445 -27.831  1.00  0.00     0.026 A 
ATOM      8  C   UNL     1      -0.674  -9.750 -26.251  1.00  0.00     0.026 A 
ATOM      9  C   UNL     1      -1.452 -10.130 -27.351  1.00  0.00     0.052 A 
ATOM     10  C   UNL     1      -2.317  -9.176 -27.985  1.00  0.00     0.099 C 
ATOM     11  N   UNL     1      -3.016  -8.405 -28.496  1.00  0.00    -0.192 NA
ENDBRANCH   2   4
TORSDOF 1
ENDMDL
MODEL 3
REMARK VINA RESULT:      -5.7     19.626     21.142
REMARK SMILES N#Cc1ccc([N+](=O)[O-])cc1
REMARK SMILES IDX 8 1 7 2 9 3 6 4 5 5 10 6 4 7 11 8 3 9 2 10 1 11
REMARK H PARENT
ROOT
ATOM      1  O   UNL     1     -10.960   1.803 -33.011  1.00  0.00    -0.258 OA
ATOM      2  N   UNL     1     -10.387   0.725 -33.223  1.00  0.00     0.062 N 
ATOM      3  O   UNL     1     -10.878  -0.222 -33.851  1.00  0.00    -0.258 OA
ENDROOT
BRANCH   2   4
ATOM      4  C   UNL     1      -9.028   0.560 -32.690  1.00  0.00     0.269 A 
ATOM      5  C   UNL     1      -8.076   1.572 -32.884  1.00  0.00     0.087 A 
ATOM      6  C   UNL     1      -8.693  -0.607 -31.990  1.00  0.00     0.087 A 
ATOM      7  C   UNL     1      -6.785   1.410 -32.374  1.00  0.00     0.026 A 
ATOM      8  C   UNL     1      -7.397  -0.759 -31.483  1.00  0.00     0.026 A 
ATOM      9  C   UNL     1      -6.442   0.247 -31.673  1.00  0.00     0.052 A 
ATOM     10  C   UNL     1      -5.115   0.087 -31.150  1.00  0.00     0.099 C 
ATOM     11  N   UNL     1      -4.043  -0.042 -30.727  1.00  0.00    -0.192 NA
ENDBRANCH   2   4
TORSDOF 1
ENDMDL
MODEL 4
REMARK VINA RESULT:      -5.7     19.619     21.086
REMARK SMILES N#Cc1ccc([N+](=O)[O-])cc1
REMARK SMILES IDX 8 1 7 2 9 3 6 4 5 5 10 6 4 7 11 8 3 9 2 10 1 11
REMARK H PARENT
ROOT
ATOM      1  O   UNL     1     -10.904  -0.259 -33.783  1.00  0.00    -0.258 OA
ATOM      2  N   UNL     1     -10.413   0.696 -33.165  1.00  0.00     0.062 N 
ATOM      3  O   UNL     1     -10.993   1.768 -32.950  1.00  0.00    -0.258 OA
ENDROOT
BRANCH   2   4
ATOM      4  C   UNL     1      -9.045   0.544 -32.651  1.00  0.00     0.269 A 
ATOM      5  C   UNL     1      -8.682  -0.627 -31.971  1.00  0.00     0.087 A 
ATOM      6  C   UNL     1      -8.111   1.571 -32.847  1.00  0.00     0.087 A 
ATOM      7  C   UNL     1      -7.379  -0.767 -31.485  1.00  0.00     0.026 A 
ATOM      8  C   UNL     1      -6.808   1.421 -32.358  1.00  0.00     0.026 A 
ATOM      9  C   UNL     1      -6.439   0.254 -31.677  1.00  0.00     0.052 A 
ATOM     10  C   UNL     1      -5.102   0.104 -31.178  1.00  0.00     0.099 C 
ATOM     11  N   UNL     1      -4.022  -0.016 -30.775  1.00  0.00    -0.192 NA
ENDBRANCH   2   4
TORSDOF 1
ENDMDL
MODEL 5
REMARK VINA RESULT:      -5.7      3.009      4.772
REMARK SMILES N#Cc1ccc([N+](=O)[O-])cc1
REMARK SMILES IDX 8 1 7 2 9 3 6 4 5 5 10 6 4 7 11 8 3 9 2 10 1 11
REMARK H PARENT
ROOT
ATOM      1  O   UNL     1       8.777   0.554 -14.975  1.00  0.00    -0.258 OA
ATOM      2  N   UNL     1       8.882  -0.589 -15.445  1.00  0.00     0.062 N 
ATOM      3  O   UNL     1       9.524  -1.509 -14.922  1.00  0.00    -0.258 OA
ENDROOT
BRANCH   2   4
ATOM      4  C   UNL     1       8.194  -0.871 -16.712  1.00  0.00     0.269 A 
ATOM      5  C   UNL     1       6.860  -1.302 -16.700  1.00  0.00     0.087 A 
ATOM      6  C   UNL     1       8.877  -0.704 -17.925  1.00  0.00     0.087 A 
ATOM      7  C   UNL     1       6.210  -1.567 -17.908  1.00  0.00     0.026 A 
ATOM      8  C   UNL     1       8.217  -0.972 -19.130  1.00  0.00     0.026 A 
ATOM      9  C   UNL     1       6.885  -1.403 -19.125  1.00  0.00     0.052 A 
ATOM     10  C   UNL     1       6.211  -1.675 -20.363  1.00  0.00     0.099 C 
ATOM     11  N   UNL     1       5.668  -1.895 -21.364  1.00  0.00    -0.192 NA
ENDBRANCH   2   4
TORSDOF 1
ENDMDL
MODEL 6
REMARK VINA RESULT:      -5.6     18.879     20.630
REMARK SMILES N#Cc1ccc([N+](=O)[O-])cc1
REMARK SMILES IDX 8 1 7 2 9 3 6 4 5 5 10 6 4 7 11 8 3 9 2 10 1 11
REMARK H PARENT
ROOT
ATOM      1  O   UNL     1      -4.332   1.468 -30.620  1.00  0.00    -0.258 OA
ATOM      2  N   UNL     1      -4.692   0.415 -31.167  1.00  0.00     0.062 N 
ATOM      3  O   UNL     1      -3.959  -0.562 -31.365  1.00  0.00    -0.258 OA
ENDROOT
BRANCH   2   4
ATOM      4  C   UNL     1      -6.089   0.322 -31.611  1.00  0.00     0.269 A 
ATOM      5  C   UNL     1      -6.886  -0.749 -31.181  1.00  0.00     0.087 A 
ATOM      6  C   UNL     1      -6.616   1.305 -32.459  1.00  0.00     0.087 A 
ATOM      7  C   UNL     1      -8.216  -0.833 -31.605  1.00  0.00     0.026 A 
ATOM      8  C   UNL     1      -7.949   1.213 -32.878  1.00  0.00     0.026 A 
ATOM      9  C   UNL     1      -8.750   0.146 -32.453  1.00  0.00     0.052 A 
ATOM     10  C   UNL     1     -10.116   0.056 -32.884  1.00  0.00     0.099 C 
ATOM     11  N   UNL     1     -11.220  -0.016 -33.233  1.00  0.00    -0.192 NA
ENDBRANCH   2   4
TORSDOF 1
ENDMDL
MODEL 7
REMARK VINA RESULT:      -5.4     14.759     15.339
REMARK SMILES N#Cc1ccc([N+](=O)[O-])cc1
REMARK SMILES IDX 8 1 7 2 9 3 6 4 5 5 10 6 4 7 11 8 3 9 2 10 1 11
REMARK H PARENT
ROOT
ATOM      1  O   UNL     1      -1.642   0.158 -29.974  1.00  0.00    -0.258 OA
ATOM      2  N   UNL     1      -2.703  -0.477 -30.054  1.00  0.00     0.062 N 
ATOM      3  O   UNL     1      -3.171  -0.938 -31.104  1.00  0.00    -0.258 OA
ENDROOT
BRANCH   2   4
ATOM      4  C   UNL     1      -3.458  -0.701 -28.814  1.00  0.00     0.269 A 
ATOM      5  C   UNL     1      -3.420   0.260 -27.793  1.00  0.00     0.087 A 
ATOM      6  C   UNL     1      -4.214  -1.872 -28.661  1.00  0.00     0.087 A 
ATOM      7  C   UNL     1      -4.143   0.043 -26.615  1.00  0.00     0.026 A 
ATOM      8  C   UNL     1      -4.934  -2.079 -27.479  1.00  0.00     0.026 A 
ATOM      9  C   UNL     1      -4.900  -1.124 -26.455  1.00  0.00     0.052 A 
ATOM     10  C   UNL     1      -5.641  -1.340 -25.245  1.00  0.00     0.099 C 
ATOM     11  N   UNL     1      -6.240  -1.515 -24.268  1.00  0.00    -0.192 NA
ENDBRANCH   2   4
TORSDOF 1
ENDMDL
MODEL 8
REMARK VINA RESULT:      -5.3     19.781     21.294
REMARK SMILES N#Cc1ccc([N+](=O)[O-])cc1
REMARK SMILES IDX 8 1 7 2 9 3 6 4 5 5 10 6 4 7 11 8 3 9 2 10 1 11
REMARK H PARENT
ROOT
ATOM      1  O   UNL     1     -10.899  -0.247 -33.936  1.00  0.00    -0.258 OA
ATOM      2  N   UNL     1     -10.619   0.427 -32.935  1.00  0.00     0.062 N 
ATOM      3  O   UNL     1     -10.911   1.621 -32.787  1.00  0.00    -0.258 OA
ENDROOT
BRANCH   2   4
ATOM      4  C   UNL     1      -9.888  -0.237 -31.848  1.00  0.00     0.269 A 
ATOM      5  C   UNL     1      -8.710  -0.944 -32.131  1.00  0.00     0.087 A 
ATOM      6  C   UNL     1     -10.371  -0.157 -30.535  1.00  0.00     0.087 A 
ATOM      7  C   UNL     1      -8.017  -1.573 -31.093  1.00  0.00     0.026 A 
ATOM      8  C   UNL     1      -9.670  -0.790 -29.502  1.00  0.00     0.026 A 
ATOM      9  C   UNL     1      -8.494  -1.498 -29.777  1.00  0.00     0.052 A 
ATOM     10  C   UNL     1      -7.777  -2.144 -28.715  1.00  0.00     0.099 C 
ATOM     11  N   UNL     1      -7.199  -2.666 -27.856  1.00  0.00    -0.192 NA
ENDBRANCH   2   4
TORSDOF 1
ENDMDL
MODEL 9
REMARK VINA RESULT:      -5.3     14.572     15.685
REMARK SMILES N#Cc1ccc([N+](=O)[O-])cc1
REMARK SMILES IDX 8 1 7 2 9 3 6 4 5 5 10 6 4 7 11 8 3 9 2 10 1 11
REMARK H PARENT
ROOT
ATOM      1  O   UNL     1      -4.926   0.114 -24.149  1.00  0.00    -0.258 OA
ATOM      2  N   UNL     1      -5.347  -0.799 -24.874  1.00  0.00     0.062 N 
ATOM      3  O   UNL     1      -6.143  -1.675 -24.511  1.00  0.00    -0.258 OA
ENDROOT
BRANCH   2   4
ATOM      4  C   UNL     1      -4.868  -0.844 -26.261  1.00  0.00     0.269 A 
ATOM      5  C   UNL     1      -5.240  -1.911 -27.092  1.00  0.00     0.087 A 
ATOM      6  C   UNL     1      -4.044   0.181 -26.746  1.00  0.00     0.087 A 
ATOM      7  C   UNL     1      -4.782  -1.949 -28.413  1.00  0.00     0.026 A 
ATOM      8  C   UNL     1      -3.592   0.135 -28.070  1.00  0.00     0.026 A 
ATOM      9  C   UNL     1      -3.959  -0.928 -28.905  1.00  0.00     0.052 A 
ATOM     10  C   UNL     1      -3.493  -0.971 -30.262  1.00  0.00     0.099 C 
ATOM     11  N   UNL     1      -3.117  -1.005 -31.358  1.00  0.00    -0.192 NA
ENDBRANCH   2   4
TORSDOF 1
ENDMDL
MODEL 10
REMARK VINA RESULT:      -5.0     14.606     15.474
REMARK SMILES N#Cc1ccc([N+](=O)[O-])cc1
REMARK SMILES IDX 8 1 7 2 9 3 6 4 5 5 10 6 4 7 11 8 3 9 2 10 1 11
REMARK H PARENT
ROOT
ATOM      1  O   UNL     1      -3.977  -2.306 -28.379  1.00  0.00    -0.258 OA
ATOM      2  N   UNL     1      -3.714  -1.552 -29.327  1.00  0.00     0.062 N 
ATOM      3  O   UNL     1      -3.608  -1.915 -30.506  1.00  0.00    -0.258 OA
ENDROOT
BRANCH   2   4
ATOM      4  C   UNL     1      -3.512  -0.128 -29.030  1.00  0.00     0.269 A 
ATOM      5  C   UNL     1      -4.365   0.830 -29.599  1.00  0.00     0.087 A 
ATOM      6  C   UNL     1      -2.470   0.265 -28.179  1.00  0.00     0.087 A 
ATOM      7  C   UNL     1      -4.170   2.184 -29.312  1.00  0.00     0.026 A 
ATOM      8  C   UNL     1      -2.283   1.623 -27.897  1.00  0.00     0.026 A 
ATOM      9  C   UNL     1      -3.130   2.584 -28.462  1.00  0.00     0.052 A 
ATOM     10  C   UNL     1      -2.936   3.976 -28.170  1.00  0.00     0.099 C 
ATOM     11  N   UNL     1      -2.779   5.100 -27.933  1.00  0.00    -0.192 NA
ENDBRANCH   2   4
TORSDOF 1
ENDMDL
