MODEL 1
REMARK VINA RESULT:      -8.3      0.000      0.000
REMARK SMILES N#Cc1ccc(CCCC[N+](=O)[O-])cc1
REMARK SMILES IDX 9 1 10 2 11 3 12 4 13 5 8 6 7 7 6 8 5 9 14 10 4 11 15 12
REMARK SMILES IDX 3 13 2 14 1 15
REMARK H PARENT
ROOT
ATOM      1  C   UNL     1       4.655  -2.308 -22.608  1.00  0.00     0.079 C 
ENDROOT
BRANCH   1   2
ATOM      2  C   UNL     1       4.847  -1.759 -24.016  1.00  0.00     0.424 C 
BRANCH   2   3
ATOM      3  N   UNL     1       3.566  -1.109 -24.447  1.00  0.00     0.019 N 
ATOM      4  O   UNL     1       3.654  -0.166 -25.241  1.00  0.00    -0.265 OA
ATOM      5  O   UNL     1       2.519  -1.558 -23.963  1.00  0.00    -0.265 OA
ENDBRANCH   2   3
ENDBRANCH   1   2
BRANCH   1   6
ATOM      6  C   UNL     1       5.847  -1.957 -21.716  1.00  0.00     0.011 C 
BRANCH   6   7
ATOM      7  C   UNL     1       5.857  -2.804 -20.441  1.00  0.00     0.036 C 
BRANCH   7   8
ATOM      8  C   UNL     1       6.506  -2.071 -19.293  1.00  0.00    -0.048 A 
ATOM      9  C   UNL     1       7.565  -1.182 -19.527  1.00  0.00     0.005 A 
ATOM     10  C   UNL     1       6.077  -2.289 -17.977  1.00  0.00     0.005 A 
ATOM     11  C   UNL     1       8.179  -0.517 -18.464  1.00  0.00     0.020 A 
ATOM     12  C   UNL     1       6.690  -1.623 -16.913  1.00  0.00     0.020 A 
ATOM     13  C   UNL     1       7.743  -0.735 -17.153  1.00  0.00     0.052 A 
ATOM     14  C   UNL     1       8.373  -0.052 -16.062  1.00  0.00     0.099 C 
ATOM     15  N   UNL     1       8.884   0.499 -15.178  1.00  0.00    -0.192 NA
ENDBRANCH   7   8
ENDBRANCH   6   7
ENDBRANCH   1   6
TORSDOF 5
ENDMDL
MODEL 2
REMARK VINA RESULT:      -6.8     13.337     14.798
REMARK SMILES N#Cc1ccc(CCCC[N+](=O)[O-])cc1
REMARK SMILES IDX 9 1 10 2 11 3 12 4 13 5 8 6 7 7 6 8 5 9 14 10 4 11 15 12
REMARK SMILES IDX 3 13 2 14 1 15
REMARK H PARENT
ROOT
ATOM      1  C   UNL     1      -4.603  -9.484 -26.841  1.00  0.00     0.079 C 
ENDROOT
BRANCH   1   2
ATOM      2  C   UNL     1      -5.079 -10.925 -26.712  1.00  0.00     0.424 C 
BRANCH   2   3
ATOM      3  N   UNL     1      -6.023 -11.008 -25.550  1.00  0.00     0.019 N 
ATOM      4  O   UNL     1      -6.406 -12.135 -25.217  1.00  0.00    -0.265 OA
ATOM      5  O   UNL     1      -6.357  -9.941 -25.022  1.00  0.00    -0.265 OA
ENDBRANCH   2   3
ENDBRANCH   1   2
BRANCH   1   6
ATOM      6  C   UNL     1      -3.997  -9.229 -28.222  1.00  0.00     0.011 C 
BRANCH   6   7
ATOM      7  C   UNL     1      -2.563  -8.703 -28.112  1.00  0.00     0.036 C 
BRANCH   7   8
ATOM      8  C   UNL     1      -1.655  -9.704 -27.441  1.00  0.00    -0.048 A 
ATOM      9  C   UNL     1      -1.558 -11.013 -27.931  1.00  0.00     0.005 A 
ATOM     10  C   UNL     1      -0.921  -9.345 -26.303  1.00  0.00     0.005 A 
ATOM     11  C   UNL     1      -0.732 -11.946 -27.300  1.00  0.00     0.020 A 
ATOM     12  C   UNL     1      -0.094 -10.277 -25.671  1.00  0.00     0.020 A 
ATOM     13  C   UNL     1       0.003 -11.580 -26.168  1.00  0.00     0.052 A 
ATOM     14  C   UNL     1       0.851 -12.537 -25.520  1.00  0.00     0.099 C 
ATOM     15  N   UNL     1       1.536 -13.312 -24.994  1.00  0.00    -0.192 NA
ENDBRANCH   7   8
ENDBRANCH   6   7
ENDBRANCH   1   6
TORSDOF 5
ENDMDL
MODEL 3
REMARK VINA RESULT:      -6.6      1.871      2.667
REMARK SMILES N#Cc1ccc(CCCC[N+](=O)[O-])cc1
REMARK SMILES IDX 9 1 10 2 11 3 12 4 13 5 8 6 7 7 6 8 5 9 14 10 4 11 15 12
REMARK SMILES IDX 3 13 2 14 1 15
REMARK H PARENT
ROOT
ATOM      1  C   UNL     1       6.017  -1.682 -20.647  1.00  0.00     0.079 C 
ENDROOT
BRANCH   1   2
ATOM      2  C   UNL     1       5.611  -2.933 -21.415  1.00  0.00     0.424 C 
BRANCH   2   3
ATOM      3  N   UNL     1       4.936  -2.509 -22.684  1.00  0.00     0.019 N 
ATOM      4  O   UNL     1       5.458  -1.582 -23.315  1.00  0.00    -0.265 OA
ATOM      5  O   UNL     1       3.901  -3.110 -22.998  1.00  0.00    -0.265 OA
ENDBRANCH   2   3
ENDBRANCH   1   2
BRANCH   1   6
ATOM      6  C   UNL     1       6.673  -2.045 -19.314  1.00  0.00     0.011 C 
BRANCH   6   7
ATOM      7  C   UNL     1       6.290  -1.051 -18.215  1.00  0.00     0.036 C 
BRANCH   7   8
ATOM      8  C   UNL     1       7.481  -0.673 -17.369  1.00  0.00    -0.048 A 
ATOM      9  C   UNL     1       8.194   0.504 -17.634  1.00  0.00     0.005 A 
ATOM     10  C   UNL     1       7.905  -1.508 -16.326  1.00  0.00     0.005 A 
ATOM     11  C   UNL     1       9.307   0.846 -16.863  1.00  0.00     0.020 A 
ATOM     12  C   UNL     1       9.018  -1.166 -15.554  1.00  0.00     0.020 A 
ATOM     13  C   UNL     1       9.722   0.011 -15.820  1.00  0.00     0.052 A 
ATOM     14  C   UNL     1      10.865   0.362 -15.029  1.00  0.00     0.099 C 
ATOM     15  N   UNL     1      11.791   0.644 -14.390  1.00  0.00    -0.192 NA
ENDBRANCH   7   8
ENDBRANCH   6   7
ENDBRANCH   1   6
TORSDOF 5
ENDMDL
MODEL 4
REMARK VINA RESULT:      -6.3      5.376      8.086
REMARK SMILES N#Cc1ccc(CCCC[N+](=O)[O-])cc1
REMARK SMILES IDX 9 1 10 2 11 3 12 4 13 5 8 6 7 7 6 8 5 9 14 10 4 11 15 12
REMARK SMILES IDX 3 13 2 14 1 15
REMARK H PARENT
ROOT
ATOM      1  C   UNL     1      10.655   1.823 -15.422  1.00  0.00     0.079 C 
ENDROOT
BRANCH   1   2
ATOM      2  C   UNL     1      12.129   2.065 -15.718  1.00  0.00     0.424 C 
BRANCH   2   3
ATOM      3  N   UNL     1      12.303   3.504 -16.100  1.00  0.00     0.019 N 
ATOM      4  O   UNL     1      13.150   3.757 -16.965  1.00  0.00    -0.265 OA
ATOM      5  O   UNL     1      11.595   4.330 -15.512  1.00  0.00    -0.265 OA
ENDBRANCH   2   3
ENDBRANCH   1   2
BRANCH   1   6
ATOM      6  C   UNL     1      10.294   0.348 -15.607  1.00  0.00     0.011 C 
BRANCH   6   7
ATOM      7  C   UNL     1       8.791   0.116 -15.427  1.00  0.00     0.036 C 
BRANCH   7   8
ATOM      8  C   UNL     1       8.156  -0.411 -16.690  1.00  0.00    -0.048 A 
ATOM      9  C   UNL     1       8.764  -0.192 -17.934  1.00  0.00     0.005 A 
ATOM     10  C   UNL     1       6.938  -1.101 -16.639  1.00  0.00     0.005 A 
ATOM     11  C   UNL     1       8.168  -0.663 -19.106  1.00  0.00     0.020 A 
ATOM     12  C   UNL     1       6.341  -1.573 -17.810  1.00  0.00     0.020 A 
ATOM     13  C   UNL     1       6.954  -1.355 -19.047  1.00  0.00     0.052 A 
ATOM     14  C   UNL     1       6.342  -1.839 -20.250  1.00  0.00     0.099 C 
ATOM     15  N   UNL     1       5.846  -2.228 -21.223  1.00  0.00    -0.192 NA
ENDBRANCH   7   8
ENDBRANCH   6   7
ENDBRANCH   1   6
TORSDOF 5
ENDMDL
MODEL 5
REMARK VINA RESULT:      -6.3     13.765     17.106
REMARK SMILES N#Cc1ccc(CCCC[N+](=O)[O-])cc1
REMARK SMILES IDX 9 1 10 2 11 3 12 4 13 5 8 6 7 7 6 8 5 9 14 10 4 11 15 12
REMARK SMILES IDX 3 13 2 14 1 15
REMARK H PARENT
ROOT
ATOM      1  C   UNL     1      -8.479   0.548 -33.765  1.00  0.00     0.079 C 
ENDROOT
BRANCH   1   2
ATOM      2  C   UNL     1      -9.079  -0.255 -32.619  1.00  0.00     0.424 C 
BRANCH   2   3
ATOM      3  N   UNL     1     -10.480   0.227 -32.390  1.00  0.00     0.019 N 
ATOM      4  O   UNL     1     -11.324  -0.070 -33.243  1.00  0.00    -0.265 OA
ATOM      5  O   UNL     1     -10.683   0.897 -31.370  1.00  0.00    -0.265 OA
ENDBRANCH   2   3
ENDBRANCH   1   2
BRANCH   1   6
ATOM      6  C   UNL     1      -7.200   1.262 -33.323  1.00  0.00     0.011 C 
BRANCH   6   7
ATOM      7  C   UNL     1      -7.364   1.892 -31.938  1.00  0.00     0.036 C 
BRANCH   7   8
ATOM      8  C   UNL     1      -6.139   1.681 -31.084  1.00  0.00    -0.048 A 
ATOM      9  C   UNL     1      -5.620   0.393 -30.895  1.00  0.00     0.005 A 
ATOM     10  C   UNL     1      -5.522   2.766 -30.446  1.00  0.00     0.005 A 
ATOM     11  C   UNL     1      -4.496   0.194 -30.089  1.00  0.00     0.020 A 
ATOM     12  C   UNL     1      -4.398   2.568 -29.641  1.00  0.00     0.020 A 
ATOM     13  C   UNL     1      -3.882   1.281 -29.460  1.00  0.00     0.052 A 
ATOM     14  C   UNL     1      -2.729   1.077 -28.633  1.00  0.00     0.099 C 
ATOM     15  N   UNL     1      -1.797   0.912 -27.963  1.00  0.00    -0.192 NA
ENDBRANCH   7   8
ENDBRANCH   6   7
ENDBRANCH   1   6
TORSDOF 5
ENDMDL
MODEL 6
REMARK VINA RESULT:      -6.2      5.445      8.226
REMARK SMILES N#Cc1ccc(CCCC[N+](=O)[O-])cc1
REMARK SMILES IDX 9 1 10 2 11 3 12 4 13 5 8 6 7 7 6 8 5 9 14 10 4 11 15 12
REMARK SMILES IDX 3 13 2 14 1 15
REMARK H PARENT
ROOT
ATOM      1  C   UNL     1      11.029   1.586 -15.728  1.00  0.00     0.079 C 
ENDROOT
BRANCH   1   2
ATOM      2  C   UNL     1      11.635   2.980 -15.818  1.00  0.00     0.424 C 
BRANCH   2   3
ATOM      3  N   UNL     1      13.012   2.859 -16.399  1.00  0.00     0.019 N 
ATOM      4  O   UNL     1      13.578   3.908 -16.727  1.00  0.00    -0.265 OA
ATOM      5  O   UNL     1      13.472   1.716 -16.518  1.00  0.00    -0.265 OA
ENDBRANCH   2   3
ENDBRANCH   1   2
BRANCH   1   6
ATOM      6  C   UNL     1       9.501   1.649 -15.756  1.00  0.00     0.011 C 
BRANCH   6   7
ATOM      7  C   UNL     1       8.881   0.277 -15.483  1.00  0.00     0.036 C 
BRANCH   7   8
ATOM      8  C   UNL     1       8.206  -0.282 -16.712  1.00  0.00    -0.048 A 
ATOM      9  C   UNL     1       7.005  -0.995 -16.598  1.00  0.00     0.005 A 
ATOM     10  C   UNL     1       8.786  -0.119 -17.977  1.00  0.00     0.005 A 
ATOM     11  C   UNL     1       6.389  -1.528 -17.732  1.00  0.00     0.020 A 
ATOM     12  C   UNL     1       8.170  -0.651 -19.112  1.00  0.00     0.020 A 
ATOM     13  C   UNL     1       6.970  -1.357 -18.993  1.00  0.00     0.052 A 
ATOM     14  C   UNL     1       6.338  -1.905 -20.158  1.00  0.00     0.099 C 
ATOM     15  N   UNL     1       5.827  -2.349 -21.099  1.00  0.00    -0.192 NA
ENDBRANCH   7   8
ENDBRANCH   6   7
ENDBRANCH   1   6
TORSDOF 5
ENDMDL
MODEL 7
REMARK VINA RESULT:      -6.2     13.214     14.221
REMARK SMILES N#Cc1ccc(CCCC[N+](=O)[O-])cc1
REMARK SMILES IDX 9 1 10 2 11 3 12 4 13 5 8 6 7 7 6 8 5 9 14 10 4 11 15 12
REMARK SMILES IDX 3 13 2 14 1 15
REMARK H PARENT
ROOT
ATOM      1  C   UNL     1      -4.156   0.865 -31.098  1.00  0.00     0.079 C 
ENDROOT
BRANCH   1   2
ATOM      2  C   UNL     1      -5.547   0.288 -31.326  1.00  0.00     0.424 C 
BRANCH   2   3
ATOM      3  N   UNL     1      -6.438   1.386 -31.823  1.00  0.00     0.019 N 
ATOM      4  O   UNL     1      -7.082   1.164 -32.855  1.00  0.00    -0.265 OA
ATOM      5  O   UNL     1      -6.449   2.438 -31.171  1.00  0.00    -0.265 OA
ENDBRANCH   2   3
ENDBRANCH   1   2
BRANCH   1   6
ATOM      6  C   UNL     1      -3.107  -0.246 -31.027  1.00  0.00     0.011 C 
BRANCH   6   7
ATOM      7  C   UNL     1      -2.328  -0.193 -29.711  1.00  0.00     0.036 C 
BRANCH   7   8
ATOM      8  C   UNL     1      -3.212  -0.511 -28.530  1.00  0.00    -0.048 A 
ATOM      9  C   UNL     1      -3.925  -1.717 -28.482  1.00  0.00     0.005 A 
ATOM     10  C   UNL     1      -3.352   0.407 -27.481  1.00  0.00     0.005 A 
ATOM     11  C   UNL     1      -4.757  -2.004 -27.398  1.00  0.00     0.020 A 
ATOM     12  C   UNL     1      -4.185   0.120 -26.396  1.00  0.00     0.020 A 
ATOM     13  C   UNL     1      -4.889  -1.086 -26.352  1.00  0.00     0.052 A 
ATOM     14  C   UNL     1      -5.744  -1.381 -25.239  1.00  0.00     0.099 C 
ATOM     15  N   UNL     1      -6.437  -1.618 -24.340  1.00  0.00    -0.192 NA
ENDBRANCH   7   8
ENDBRANCH   6   7
ENDBRANCH   1   6
TORSDOF 5
ENDMDL
MODEL 8
REMARK VINA RESULT:      -6.1     13.280     14.424
REMARK SMILES N#Cc1ccc(CCCC[N+](=O)[O-])cc1
REMARK SMILES IDX 9 1 10 2 11 3 12 4 13 5 8 6 7 7 6 8 5 9 14 10 4 11 15 12
REMARK SMILES IDX 3 13 2 14 1 15
REMARK H PARENT
ROOT
ATOM      1  C   UNL     1      -6.744  -1.691 -23.061  1.00  0.00     0.079 C 
ENDROOT
BRANCH   1   2
ATOM      2  C   UNL     1      -8.144  -1.802 -22.471  1.00  0.00     0.424 C 
BRANCH   2   3
ATOM      3  N   UNL     1      -8.636  -3.202 -22.685  1.00  0.00     0.019 N 
ATOM      4  O   UNL     1      -9.367  -3.398 -23.662  1.00  0.00    -0.265 OA
ATOM      5  O   UNL     1      -8.284  -4.052 -21.858  1.00  0.00    -0.265 OA
ENDBRANCH   2   3
ENDBRANCH   1   2
BRANCH   1   6
ATOM      6  C   UNL     1      -6.698  -0.640 -24.171  1.00  0.00     0.011 C 
BRANCH   6   7
ATOM      7  C   UNL     1      -5.263  -0.186 -24.450  1.00  0.00     0.036 C 
BRANCH   7   8
ATOM      8  C   UNL     1      -4.826  -0.557 -25.845  1.00  0.00    -0.048 A 
ATOM      9  C   UNL     1      -4.006   0.308 -26.584  1.00  0.00     0.005 A 
ATOM     10  C   UNL     1      -5.255  -1.755 -26.430  1.00  0.00     0.005 A 
ATOM     11  C   UNL     1      -3.615  -0.025 -27.883  1.00  0.00     0.020 A 
ATOM     12  C   UNL     1      -4.863  -2.090 -27.729  1.00  0.00     0.020 A 
ATOM     13  C   UNL     1      -4.043  -1.225 -28.459  1.00  0.00     0.052 A 
ATOM     14  C   UNL     1      -3.641  -1.567 -29.792  1.00  0.00     0.099 C 
ATOM     15  N   UNL     1      -3.318  -1.843 -30.871  1.00  0.00    -0.192 NA
ENDBRANCH   7   8
ENDBRANCH   6   7
ENDBRANCH   1   6
TORSDOF 5
ENDMDL
MODEL 9
REMARK VINA RESULT:      -6.1     18.450     19.384
REMARK SMILES N#Cc1ccc(CCCC[N+](=O)[O-])cc1
REMARK SMILES IDX 9 1 10 2 11 3 12 4 13 5 8 6 7 7 6 8 5 9 14 10 4 11 15 12
REMARK SMILES IDX 3 13 2 14 1 15
REMARK H PARENT
ROOT
ATOM      1  C   UNL     1      -9.414  -2.175 -31.512  1.00  0.00     0.079 C 
ENDROOT
BRANCH   1   2
ATOM      2  C   UNL     1      -9.336  -0.830 -32.222  1.00  0.00     0.424 C 
BRANCH   2   3
ATOM      3  N   UNL     1     -10.666  -0.151 -32.092  1.00  0.00     0.019 N 
ATOM      4  O   UNL     1     -11.382  -0.118 -33.100  1.00  0.00    -0.265 OA
ATOM      5  O   UNL     1     -10.941   0.338 -30.989  1.00  0.00    -0.265 OA
ENDBRANCH   2   3
ENDBRANCH   1   2
BRANCH   1   6
ATOM      6  C   UNL     1      -8.141  -2.444 -30.708  1.00  0.00     0.011 C 
BRANCH   6   7
ATOM      7  C   UNL     1      -8.061  -3.908 -30.266  1.00  0.00     0.036 C 
BRANCH   7   8
ATOM      8  C   UNL     1      -9.195  -4.271 -29.341  1.00  0.00    -0.048 A 
ATOM      9  C   UNL     1      -9.343  -3.618 -28.109  1.00  0.00     0.005 A 
ATOM     10  C   UNL     1     -10.099  -5.284 -29.688  1.00  0.00     0.005 A 
ATOM     11  C   UNL     1     -10.382  -3.965 -27.244  1.00  0.00     0.020 A 
ATOM     12  C   UNL     1     -11.139  -5.632 -28.824  1.00  0.00     0.020 A 
ATOM     13  C   UNL     1     -11.284  -4.974 -27.599  1.00  0.00     0.052 A 
ATOM     14  C   UNL     1     -12.351  -5.331 -26.711  1.00  0.00     0.099 C 
ATOM     15  N   UNL     1     -13.213  -5.621 -25.991  1.00  0.00    -0.192 NA
ENDBRANCH   7   8
ENDBRANCH   6   7
ENDBRANCH   1   6
TORSDOF 5
ENDMDL
MODEL 10
REMARK VINA RESULT:      -6.1     13.170     17.366
REMARK SMILES N#Cc1ccc(CCCC[N+](=O)[O-])cc1
REMARK SMILES IDX 9 1 10 2 11 3 12 4 13 5 8 6 7 7 6 8 5 9 14 10 4 11 15 12
REMARK SMILES IDX 3 13 2 14 1 15
REMARK H PARENT
ROOT
ATOM      1  C   UNL     1      -3.074  -1.037 -29.261  1.00  0.00     0.079 C 
ENDROOT
BRANCH   1   2
ATOM      2  C   UNL     1      -4.088  -1.041 -28.124  1.00  0.00     0.424 C 
BRANCH   2   3
ATOM      3  N   UNL     1      -3.675  -0.005 -27.122  1.00  0.00     0.019 N 
ATOM      4  O   UNL     1      -4.322   0.047 -26.069  1.00  0.00    -0.265 OA
ATOM      5  O   UNL     1      -2.727   0.727 -27.429  1.00  0.00    -0.265 OA
ENDBRANCH   2   3
ENDBRANCH   1   2
BRANCH   1   6
ATOM      6  C   UNL     1      -3.769  -0.874 -30.614  1.00  0.00     0.011 C 
BRANCH   6   7
ATOM      7  C   UNL     1      -4.460   0.488 -30.726  1.00  0.00     0.036 C 
BRANCH   7   8
ATOM      8  C   UNL     1      -5.812   0.371 -31.384  1.00  0.00    -0.048 A 
ATOM      9  C   UNL     1      -6.678  -0.678 -31.045  1.00  0.00     0.005 A 
ATOM     10  C   UNL     1      -6.208   1.294 -32.362  1.00  0.00     0.005 A 
ATOM     11  C   UNL     1      -7.923  -0.797 -31.667  1.00  0.00     0.020 A 
ATOM     12  C   UNL     1      -7.453   1.175 -32.984  1.00  0.00     0.020 A 
ATOM     13  C   UNL     1      -8.314   0.130 -32.638  1.00  0.00     0.052 A 
ATOM     14  C   UNL     1      -9.592   0.008 -33.277  1.00  0.00     0.099 C 
ATOM     15  N   UNL     1     -10.625  -0.093 -33.795  1.00  0.00    -0.192 NA
ENDBRANCH   7   8
ENDBRANCH   6   7
ENDBRANCH   1   6
TORSDOF 5
ENDMDL
