MODEL 1
REMARK VINA RESULT:      -8.4      0.000      0.000
REMARK SMILES O=[N+]([O-])CCCCc1ccc(C(F)(F)F)cc1
REMARK SMILES IDX 6 1 5 2 4 3 2 4 1 5 3 6 7 7 8 8 9 9 17 10 10 11 16 12 11 13
REMARK SMILES IDX 12 14 13 15 14 16 15 17
REMARK H PARENT
ROOT
ATOM      1  C   UNL     1       5.806  -1.852 -21.727  1.00  0.00     0.011 C 
ENDROOT
BRANCH   1   2
ATOM      2  C   UNL     1       4.689  -2.384 -22.629  1.00  0.00     0.079 C 
BRANCH   2   3
ATOM      3  C   UNL     1       4.824  -1.834 -24.044  1.00  0.00     0.424 C 
BRANCH   3   4
ATOM      4  N   UNL     1       3.545  -1.142 -24.408  1.00  0.00     0.019 N 
ATOM      5  O   UNL     1       2.504  -1.590 -23.913  1.00  0.00    -0.265 OA
ATOM      6  O   UNL     1       3.625  -0.180 -25.182  1.00  0.00    -0.265 OA
ENDBRANCH   3   4
ENDBRANCH   2   3
ENDBRANCH   1   2
BRANCH   1   7
ATOM      7  C   UNL     1       5.913  -2.608 -20.397  1.00  0.00     0.036 C 
BRANCH   7   8
ATOM      8  C   UNL     1       6.636  -1.836 -19.320  1.00  0.00    -0.048 A 
ATOM      9  C   UNL     1       7.917  -1.322 -19.554  1.00  0.00     0.004 A 
ATOM     10  C   UNL     1       6.040  -1.630 -18.070  1.00  0.00     0.004 A 
ATOM     11  C   UNL     1       8.592  -0.616 -18.555  1.00  0.00     0.013 A 
ATOM     12  C   UNL     1       6.714  -0.926 -17.070  1.00  0.00     0.013 A 
ATOM     13  C   UNL     1       8.001  -0.418 -17.299  1.00  0.00     0.056 A 
BRANCH  13  14
ATOM     14  C   UNL     1       8.717   0.364 -16.226  1.00  0.00     0.416 C 
ATOM     15  F   UNL     1       8.261   1.641 -16.096  1.00  0.00    -0.166 F 
ATOM     16  F   UNL     1       8.586  -0.206 -14.996  1.00  0.00    -0.166 F 
ATOM     17  F   UNL     1      10.057   0.470 -16.447  1.00  0.00    -0.166 F 
ENDBRANCH  13  14
ENDBRANCH   7   8
ENDBRANCH   1   7
TORSDOF 6
ENDMDL
MODEL 2
REMARK VINA RESULT:      -8.4      0.052      1.664
REMARK SMILES O=[N+]([O-])CCCCc1ccc(C(F)(F)F)cc1
REMARK SMILES IDX 6 1 5 2 4 3 2 4 1 5 3 6 7 7 8 8 9 9 17 10 10 11 16 12 11 13
REMARK SMILES IDX 12 14 13 15 14 16 15 17
REMARK H PARENT
ROOT
ATOM      1  C   UNL     1       5.733  -1.832 -21.706  1.00  0.00     0.011 C 
ENDROOT
BRANCH   1   2
ATOM      2  C   UNL     1       4.683  -2.449 -22.634  1.00  0.00     0.079 C 
BRANCH   2   3
ATOM      3  C   UNL     1       4.806  -1.886 -24.045  1.00  0.00     0.424 C 
BRANCH   3   4
ATOM      4  N   UNL     1       3.533  -1.171 -24.383  1.00  0.00     0.019 N 
ATOM      5  O   UNL     1       3.622  -0.192 -25.134  1.00  0.00    -0.265 OA
ATOM      6  O   UNL     1       2.490  -1.607 -23.880  1.00  0.00    -0.265 OA
ENDBRANCH   3   4
ENDBRANCH   2   3
ENDBRANCH   1   2
BRANCH   1   7
ATOM      7  C   UNL     1       5.941  -2.637 -20.417  1.00  0.00     0.036 C 
BRANCH   7   8
ATOM      8  C   UNL     1       6.662  -1.871 -19.336  1.00  0.00    -0.048 A 
ATOM      9  C   UNL     1       6.039  -1.617 -18.108  1.00  0.00     0.004 A 
ATOM     10  C   UNL     1       7.962  -1.396 -19.548  1.00  0.00     0.004 A 
ATOM     11  C   UNL     1       6.702  -0.900 -17.110  1.00  0.00     0.013 A 
ATOM     12  C   UNL     1       8.626  -0.676 -18.551  1.00  0.00     0.013 A 
ATOM     13  C   UNL     1       8.000  -0.413 -17.324  1.00  0.00     0.056 A 
BRANCH  13  14
ATOM     14  C   UNL     1       8.728   0.342 -16.240  1.00  0.00     0.416 C 
ATOM     15  F   UNL     1      10.065   0.463 -16.474  1.00  0.00    -0.166 F 
ATOM     16  F   UNL     1       8.258   1.612 -16.089  1.00  0.00    -0.166 F 
ATOM     17  F   UNL     1       8.618  -0.244 -15.015  1.00  0.00    -0.166 F 
ENDBRANCH  13  14
ENDBRANCH   7   8
ENDBRANCH   1   7
TORSDOF 6
ENDMDL
MODEL 3
REMARK VINA RESULT:      -7.3      6.353      7.905
REMARK SMILES O=[N+]([O-])CCCCc1ccc(C(F)(F)F)cc1
REMARK SMILES IDX 6 1 5 2 4 3 2 4 1 5 3 6 7 7 8 8 9 9 17 10 10 11 16 12 11 13
REMARK SMILES IDX 12 14 13 15 14 16 15 17
REMARK H PARENT
ROOT
ATOM      1  C   UNL     1      10.166   0.539 -15.652  1.00  0.00     0.011 C 
ENDROOT
BRANCH   1   2
ATOM      2  C   UNL     1      10.653   1.989 -15.569  1.00  0.00     0.079 C 
BRANCH   2   3
ATOM      3  C   UNL     1      12.143   2.079 -15.874  1.00  0.00     0.424 C 
BRANCH   3   4
ATOM      4  N   UNL     1      12.468   3.498 -16.234  1.00  0.00     0.019 N 
ATOM      5  O   UNL     1      11.883   4.385 -15.602  1.00  0.00    -0.265 OA
ATOM      6  O   UNL     1      13.289   3.675 -17.143  1.00  0.00    -0.265 OA
ENDBRANCH   3   4
ENDBRANCH   2   3
ENDBRANCH   1   2
BRANCH   1   7
ATOM      7  C   UNL     1       8.637   0.418 -15.616  1.00  0.00     0.036 C 
BRANCH   7   8
ATOM      8  C   UNL     1       8.061  -0.304 -16.808  1.00  0.00    -0.048 A 
ATOM      9  C   UNL     1       8.738  -0.308 -18.034  1.00  0.00     0.004 A 
ATOM     10  C   UNL     1       6.836  -0.975 -16.709  1.00  0.00     0.004 A 
ATOM     11  C   UNL     1       8.201  -0.967 -19.141  1.00  0.00     0.013 A 
ATOM     12  C   UNL     1       6.296  -1.635 -17.816  1.00  0.00     0.013 A 
ATOM     13  C   UNL     1       6.969  -1.631 -19.047  1.00  0.00     0.056 A 
BRANCH  13  14
ATOM     14  C   UNL     1       6.397  -2.365 -20.234  1.00  0.00     0.416 C 
ATOM     15  F   UNL     1       5.751  -1.545 -21.111  1.00  0.00    -0.166 F 
ATOM     16  F   UNL     1       7.357  -3.004 -20.959  1.00  0.00    -0.166 F 
ATOM     17  F   UNL     1       5.492  -3.322 -19.886  1.00  0.00    -0.166 F 
ENDBRANCH  13  14
ENDBRANCH   7   8
ENDBRANCH   1   7
TORSDOF 6
ENDMDL
MODEL 4
REMARK VINA RESULT:      -7.3     14.728     17.249
REMARK SMILES O=[N+]([O-])CCCCc1ccc(C(F)(F)F)cc1
REMARK SMILES IDX 6 1 5 2 4 3 2 4 1 5 3 6 7 7 8 8 9 9 17 10 10 11 16 12 11 13
REMARK SMILES IDX 12 14 13 15 14 16 15 17
REMARK H PARENT
ROOT
ATOM      1  C   UNL     1      -7.316   1.397 -33.367  1.00  0.00     0.011 C 
ENDROOT
BRANCH   1   2
ATOM      2  C   UNL     1      -8.427   0.411 -33.741  1.00  0.00     0.079 C 
BRANCH   2   3
ATOM      3  C   UNL     1      -9.263   0.045 -32.522  1.00  0.00     0.424 C 
BRANCH   3   4
ATOM      4  N   UNL     1     -10.686   0.431 -32.790  1.00  0.00     0.019 N 
ATOM      5  O   UNL     1     -10.911   1.627 -33.011  1.00  0.00    -0.265 OA
ATOM      6  O   UNL     1     -11.531  -0.472 -32.761  1.00  0.00    -0.265 OA
ENDBRANCH   3   4
ENDBRANCH   2   3
ENDBRANCH   1   2
BRANCH   1   7
ATOM      7  C   UNL     1      -7.318   1.765 -31.878  1.00  0.00     0.036 C 
BRANCH   7   8
ATOM      8  C   UNL     1      -6.075   1.324 -31.146  1.00  0.00    -0.048 A 
ATOM      9  C   UNL     1      -5.315   2.247 -30.417  1.00  0.00     0.004 A 
ATOM     10  C   UNL     1      -5.660  -0.012 -31.190  1.00  0.00     0.004 A 
ATOM     11  C   UNL     1      -4.159   1.842 -29.747  1.00  0.00     0.013 A 
ATOM     12  C   UNL     1      -4.503  -0.418 -30.520  1.00  0.00     0.013 A 
ATOM     13  C   UNL     1      -3.735   0.506 -29.798  1.00  0.00     0.056 A 
BRANCH  13  14
ATOM     14  C   UNL     1      -2.500   0.062 -29.056  1.00  0.00     0.416 C 
ATOM     15  F   UNL     1      -2.526  -1.257 -28.710  1.00  0.00    -0.166 F 
ATOM     16  F   UNL     1      -1.365   0.232 -29.790  1.00  0.00    -0.166 F 
ATOM     17  F   UNL     1      -2.298   0.745 -27.895  1.00  0.00    -0.166 F 
ENDBRANCH  13  14
ENDBRANCH   7   8
ENDBRANCH   1   7
TORSDOF 6
ENDMDL
MODEL 5
REMARK VINA RESULT:      -7.3     14.946     17.379
REMARK SMILES O=[N+]([O-])CCCCc1ccc(C(F)(F)F)cc1
REMARK SMILES IDX 6 1 5 2 4 3 2 4 1 5 3 6 7 7 8 8 9 9 17 10 10 11 16 12 11 13
REMARK SMILES IDX 12 14 13 15 14 16 15 17
REMARK H PARENT
ROOT
ATOM      1  C   UNL     1      -7.339   1.247 -33.371  1.00  0.00     0.011 C 
ENDROOT
BRANCH   1   2
ATOM      2  C   UNL     1      -8.544   0.493 -33.942  1.00  0.00     0.079 C 
BRANCH   2   3
ATOM      3  C   UNL     1      -9.332  -0.192 -32.833  1.00  0.00     0.424 C 
BRANCH   3   4
ATOM      4  N   UNL     1     -10.746   0.301 -32.882  1.00  0.00     0.019 N 
ATOM      5  O   UNL     1     -11.640  -0.547 -32.778  1.00  0.00    -0.265 OA
ATOM      6  O   UNL     1     -10.914   1.519 -33.030  1.00  0.00    -0.265 OA
ENDBRANCH   3   4
ENDBRANCH   2   3
ENDBRANCH   1   2
BRANCH   1   7
ATOM      7  C   UNL     1      -7.455   1.509 -31.864  1.00  0.00     0.036 C 
BRANCH   7   8
ATOM      8  C   UNL     1      -6.353   0.873 -31.054  1.00  0.00    -0.048 A 
ATOM      9  C   UNL     1      -5.313   1.651 -30.534  1.00  0.00     0.004 A 
ATOM     10  C   UNL     1      -6.352  -0.507 -30.816  1.00  0.00     0.004 A 
ATOM     11  C   UNL     1      -4.287   1.062 -29.792  1.00  0.00     0.013 A 
ATOM     12  C   UNL     1      -5.326  -1.099 -30.075  1.00  0.00     0.013 A 
ATOM     13  C   UNL     1      -4.278  -0.322 -29.561  1.00  0.00     0.056 A 
BRANCH  13  14
ATOM     14  C   UNL     1      -3.184  -0.958 -28.740  1.00  0.00     0.416 C 
ATOM     15  F   UNL     1      -2.999  -2.278 -29.023  1.00  0.00    -0.166 F 
ATOM     16  F   UNL     1      -1.975  -0.361 -28.938  1.00  0.00    -0.166 F 
ATOM     17  F   UNL     1      -3.416  -0.895 -27.400  1.00  0.00    -0.166 F 
ENDBRANCH  13  14
ENDBRANCH   7   8
ENDBRANCH   1   7
TORSDOF 6
ENDMDL
MODEL 6
REMARK VINA RESULT:      -7.2      1.412      2.109
REMARK SMILES O=[N+]([O-])CCCCc1ccc(C(F)(F)F)cc1
REMARK SMILES IDX 6 1 5 2 4 3 2 4 1 5 3 6 7 7 8 8 9 9 17 10 10 11 16 12 11 13
REMARK SMILES IDX 12 14 13 15 14 16 15 17
REMARK H PARENT
ROOT
ATOM      1  C   UNL     1       6.342  -3.053 -19.902  1.00  0.00     0.011 C 
ENDROOT
BRANCH   1   2
ATOM      2  C   UNL     1       5.981  -3.173 -21.386  1.00  0.00     0.079 C 
BRANCH   2   3
ATOM      3  C   UNL     1       5.440  -1.854 -21.923  1.00  0.00     0.424 C 
BRANCH   3   4
ATOM      4  N   UNL     1       4.835  -2.104 -23.271  1.00  0.00     0.019 N 
ATOM      5  O   UNL     1       5.218  -1.383 -24.200  1.00  0.00    -0.265 OA
ATOM      6  O   UNL     1       3.993  -3.007 -23.353  1.00  0.00    -0.265 OA
ENDBRANCH   3   4
ENDBRANCH   2   3
ENDBRANCH   1   2
BRANCH   1   7
ATOM      7  C   UNL     1       5.970  -1.691 -19.304  1.00  0.00     0.036 C 
BRANCH   7   8
ATOM      8  C   UNL     1       6.985  -1.166 -18.319  1.00  0.00    -0.048 A 
ATOM      9  C   UNL     1       8.107  -0.457 -18.764  1.00  0.00     0.004 A 
ATOM     10  C   UNL     1       6.823  -1.387 -16.945  1.00  0.00     0.004 A 
ATOM     11  C   UNL     1       9.053   0.020 -17.855  1.00  0.00     0.013 A 
ATOM     12  C   UNL     1       7.769  -0.910 -16.034  1.00  0.00     0.013 A 
ATOM     13  C   UNL     1       8.899  -0.208 -16.479  1.00  0.00     0.056 A 
BRANCH  13  14
ATOM     14  C   UNL     1       9.906   0.327 -15.492  1.00  0.00     0.416 C 
ATOM     15  F   UNL     1      10.746  -0.632 -15.009  1.00  0.00    -0.166 F 
ATOM     16  F   UNL     1      10.707   1.284 -16.038  1.00  0.00    -0.166 F 
ATOM     17  F   UNL     1       9.331   0.900 -14.399  1.00  0.00    -0.166 F 
ENDBRANCH  13  14
ENDBRANCH   7   8
ENDBRANCH   1   7
TORSDOF 6
ENDMDL
MODEL 7
REMARK VINA RESULT:      -7.1      6.652      8.114
REMARK SMILES O=[N+]([O-])CCCCc1ccc(C(F)(F)F)cc1
REMARK SMILES IDX 6 1 5 2 4 3 2 4 1 5 3 6 7 7 8 8 9 9 17 10 10 11 16 12 11 13
REMARK SMILES IDX 12 14 13 15 14 16 15 17
REMARK H PARENT
ROOT
ATOM      1  C   UNL     1       9.128   1.635 -15.756  1.00  0.00     0.011 C 
ENDROOT
BRANCH   1   2
ATOM      2  C   UNL     1      10.581   1.838 -15.314  1.00  0.00     0.079 C 
BRANCH   2   3
ATOM      3  C   UNL     1      11.357   0.529 -15.383  1.00  0.00     0.424 C 
BRANCH   3   4
ATOM      4  N   UNL     1      12.107   0.355 -14.096  1.00  0.00     0.019 N 
ATOM      5  O   UNL     1      12.059   1.291 -13.288  1.00  0.00    -0.265 OA
ATOM      6  O   UNL     1      12.724  -0.706 -13.942  1.00  0.00    -0.265 OA
ENDBRANCH   3   4
ENDBRANCH   2   3
ENDBRANCH   1   2
BRANCH   1   7
ATOM      7  C   UNL     1       8.612   0.217 -15.485  1.00  0.00     0.036 C 
BRANCH   7   8
ATOM      8  C   UNL     1       8.036  -0.460 -16.705  1.00  0.00    -0.048 A 
ATOM      9  C   UNL     1       8.673  -0.348 -17.946  1.00  0.00     0.004 A 
ATOM     10  C   UNL     1       6.854  -1.203 -16.614  1.00  0.00     0.004 A 
ATOM     11  C   UNL     1       8.137  -0.965 -19.078  1.00  0.00     0.013 A 
ATOM     12  C   UNL     1       6.315  -1.821 -17.746  1.00  0.00     0.013 A 
ATOM     13  C   UNL     1       6.946  -1.702 -18.992  1.00  0.00     0.056 A 
BRANCH  13  14
ATOM     14  C   UNL     1       6.377  -2.390 -20.207  1.00  0.00     0.416 C 
ATOM     15  F   UNL     1       7.332  -2.934 -21.013  1.00  0.00    -0.166 F 
ATOM     16  F   UNL     1       5.540  -3.413 -19.878  1.00  0.00    -0.166 F 
ATOM     17  F   UNL     1       5.651  -1.556 -21.003  1.00  0.00    -0.166 F 
ENDBRANCH  13  14
ENDBRANCH   7   8
ENDBRANCH   1   7
TORSDOF 6
ENDMDL
MODEL 8
REMARK VINA RESULT:      -6.7     18.827     19.922
REMARK SMILES O=[N+]([O-])CCCCc1ccc(C(F)(F)F)cc1
REMARK SMILES IDX 6 1 5 2 4 3 2 4 1 5 3 6 7 7 8 8 9 9 17 10 10 11 16 12 11 13
REMARK SMILES IDX 12 14 13 15 14 16 15 17
REMARK H PARENT
ROOT
ATOM      1  C   UNL     1      -8.589  -3.119 -28.326  1.00  0.00     0.011 C 
ENDROOT
BRANCH   1   2
ATOM      2  C   UNL     1      -9.582  -4.264 -28.104  1.00  0.00     0.079 C 
BRANCH   2   3
ATOM      3  C   UNL     1      -9.561  -5.237 -29.276  1.00  0.00     0.424 C 
BRANCH   3   4
ATOM      4  N   UNL     1     -10.933  -5.819 -29.434  1.00  0.00     0.019 N 
ATOM      5  O   UNL     1     -11.600  -5.973 -28.403  1.00  0.00    -0.265 OA
ATOM      6  O   UNL     1     -11.294  -6.109 -30.582  1.00  0.00    -0.265 OA
ENDBRANCH   3   4
ENDBRANCH   2   3
ENDBRANCH   1   2
BRANCH   1   7
ATOM      7  C   UNL     1      -7.719  -3.313 -29.574  1.00  0.00     0.036 C 
BRANCH   7   8
ATOM      8  C   UNL     1      -7.876  -2.215 -30.596  1.00  0.00    -0.048 A 
ATOM      9  C   UNL     1      -6.912  -1.206 -30.710  1.00  0.00     0.004 A 
ATOM     10  C   UNL     1      -8.992  -2.185 -31.442  1.00  0.00     0.004 A 
ATOM     11  C   UNL     1      -7.061  -0.184 -31.649  1.00  0.00     0.013 A 
ATOM     12  C   UNL     1      -9.143  -1.162 -32.382  1.00  0.00     0.013 A 
ATOM     13  C   UNL     1      -8.183  -0.146 -32.490  1.00  0.00     0.056 A 
BRANCH  13  14
ATOM     14  C   UNL     1      -8.335   0.944 -33.522  1.00  0.00     0.416 C 
ATOM     15  F   UNL     1      -9.599   1.035 -34.025  1.00  0.00    -0.166 F 
ATOM     16  F   UNL     1      -8.044   2.176 -33.020  1.00  0.00    -0.166 F 
ATOM     17  F   UNL     1      -7.518   0.778 -34.599  1.00  0.00    -0.166 F 
ENDBRANCH  13  14
ENDBRANCH   7   8
ENDBRANCH   1   7
TORSDOF 6
ENDMDL
MODEL 9
REMARK VINA RESULT:      -6.7     14.426     16.807
REMARK SMILES O=[N+]([O-])CCCCc1ccc(C(F)(F)F)cc1
REMARK SMILES IDX 6 1 5 2 4 3 2 4 1 5 3 6 7 7 8 8 9 9 17 10 10 11 16 12 11 13
REMARK SMILES IDX 12 14 13 15 14 16 15 17
REMARK H PARENT
ROOT
ATOM      1  C   UNL     1      -7.924  -1.065 -31.388  1.00  0.00     0.011 C 
ENDROOT
BRANCH   1   2
ATOM      2  C   UNL     1      -9.056  -1.319 -32.388  1.00  0.00     0.079 C 
BRANCH   2   3
ATOM      3  C   UNL     1      -9.301  -0.091 -33.256  1.00  0.00     0.424 C 
BRANCH   3   4
ATOM      4  N   UNL     1     -10.711   0.368 -33.039  1.00  0.00     0.019 N 
ATOM      5  O   UNL     1     -10.906   1.590 -33.016  1.00  0.00    -0.265 OA
ATOM      6  O   UNL     1     -11.574  -0.507 -32.892  1.00  0.00    -0.265 OA
ENDBRANCH   3   4
ENDBRANCH   2   3
ENDBRANCH   1   2
BRANCH   1   7
ATOM      7  C   UNL     1      -7.007   0.092 -31.802  1.00  0.00     0.036 C 
BRANCH   7   8
ATOM      8  C   UNL     1      -5.891   0.359 -30.822  1.00  0.00    -0.048 A 
ATOM      9  C   UNL     1      -5.303  -0.694 -30.111  1.00  0.00     0.004 A 
ATOM     10  C   UNL     1      -5.433   1.664 -30.605  1.00  0.00     0.004 A 
ATOM     11  C   UNL     1      -4.277  -0.447 -29.197  1.00  0.00     0.013 A 
ATOM     12  C   UNL     1      -4.407   1.912 -29.689  1.00  0.00     0.013 A 
ATOM     13  C   UNL     1      -3.823   0.860 -28.969  1.00  0.00     0.056 A 
BRANCH  13  14
ATOM     14  C   UNL     1      -2.699   1.127 -27.999  1.00  0.00     0.416 C 
ATOM     15  F   UNL     1      -2.402   2.451 -27.872  1.00  0.00    -0.166 F 
ATOM     16  F   UNL     1      -2.985   0.687 -26.742  1.00  0.00    -0.166 F 
ATOM     17  F   UNL     1      -1.533   0.517 -28.351  1.00  0.00    -0.166 F 
ENDBRANCH  13  14
ENDBRANCH   7   8
ENDBRANCH   1   7
TORSDOF 6
ENDMDL
MODEL 10
REMARK VINA RESULT:      -6.7      6.092      7.755
REMARK SMILES O=[N+]([O-])CCCCc1ccc(C(F)(F)F)cc1
REMARK SMILES IDX 6 1 5 2 4 3 2 4 1 5 3 6 7 7 8 8 9 9 17 10 10 11 16 12 11 13
REMARK SMILES IDX 12 14 13 15 14 16 15 17
REMARK H PARENT
ROOT
ATOM      1  C   UNL     1       6.333  -2.113 -19.278  1.00  0.00     0.011 C 
ENDROOT
BRANCH   1   2
ATOM      2  C   UNL     1       7.817  -1.769 -19.116  1.00  0.00     0.079 C 
BRANCH   2   3
ATOM      3  C   UNL     1       7.992  -0.345 -18.605  1.00  0.00     0.424 C 
BRANCH   3   4
ATOM      4  N   UNL     1       8.038  -0.381 -17.107  1.00  0.00     0.019 N 
ATOM      5  O   UNL     1       7.122   0.189 -16.504  1.00  0.00    -0.265 OA
ATOM      6  O   UNL     1       8.993  -0.972 -16.586  1.00  0.00    -0.265 OA
ENDBRANCH   3   4
ENDBRANCH   2   3
ENDBRANCH   1   2
BRANCH   1   7
ATOM      7  C   UNL     1       6.083  -3.215 -20.314  1.00  0.00     0.036 C 
BRANCH   7   8
ATOM      8  C   UNL     1       5.523  -2.702 -21.618  1.00  0.00    -0.048 A 
ATOM      9  C   UNL     1       6.135  -1.632 -22.282  1.00  0.00     0.004 A 
ATOM     10  C   UNL     1       4.379  -3.283 -22.179  1.00  0.00     0.004 A 
ATOM     11  C   UNL     1       5.613  -1.149 -23.484  1.00  0.00     0.013 A 
ATOM     12  C   UNL     1       3.855  -2.800 -23.381  1.00  0.00     0.013 A 
ATOM     13  C   UNL     1       4.461  -1.723 -24.042  1.00  0.00     0.056 A 
BRANCH  13  14
ATOM     14  C   UNL     1       3.908  -1.219 -25.352  1.00  0.00     0.416 C 
ATOM     15  F   UNL     1       4.705  -0.289 -25.950  1.00  0.00    -0.166 F 
ATOM     16  F   UNL     1       3.750  -2.217 -26.265  1.00  0.00    -0.166 F 
ATOM     17  F   UNL     1       2.685  -0.632 -25.226  1.00  0.00    -0.166 F 
ENDBRANCH  13  14
ENDBRANCH   7   8
ENDBRANCH   1   7
TORSDOF 6
ENDMDL
