MODEL 1
REMARK VINA RESULT:      -7.1      0.000      0.000
REMARK SMILES O=[N+]([O-])c1ccc(C(F)(F)F)cc1
REMARK SMILES IDX 4 1 5 2 6 3 7 4 12 5 13 6 2 7 1 8 3 9 8 10 9 11 10 12 11 13
REMARK H PARENT
ROOT
ATOM      1  C   UNL     1      -0.043 -11.444 -26.189  1.00  0.00     0.269 A 
ATOM      2  C   UNL     1      -0.848 -11.892 -27.246  1.00  0.00     0.086 A 
ATOM      3  C   UNL     1      -1.823 -11.043 -27.778  1.00  0.00     0.020 A 
ATOM      4  C   UNL     1      -2.004  -9.748 -27.264  1.00  0.00     0.056 A 
ATOM      5  C   UNL     1      -1.188  -9.315 -26.204  1.00  0.00     0.020 A 
ATOM      6  C   UNL     1      -0.210 -10.156 -25.666  1.00  0.00     0.086 A 
ENDROOT
BRANCH   1   7
ATOM      7  N   UNL     1       0.981 -12.333 -25.627  1.00  0.00     0.062 N 
ATOM      8  O   UNL     1       1.350 -13.296 -26.314  1.00  0.00    -0.258 OA
ATOM      9  O   UNL     1       1.417 -12.068 -24.497  1.00  0.00    -0.258 OA
ENDBRANCH   1   7
BRANCH   4  10
ATOM     10  C   UNL     1      -3.058  -8.822 -27.829  1.00  0.00     0.416 C 
ATOM     11  F   UNL     1      -3.985  -9.459 -28.597  1.00  0.00    -0.166 F 
ATOM     12  F   UNL     1      -3.756  -8.177 -26.855  1.00  0.00    -0.166 F 
ATOM     13  F   UNL     1      -2.523  -7.849 -28.617  1.00  0.00    -0.166 F 
ENDBRANCH   4  10
TORSDOF 2
ENDMDL
MODEL 2
REMARK VINA RESULT:      -6.8     14.615     15.688
REMARK SMILES O=[N+]([O-])c1ccc(C(F)(F)F)cc1
REMARK SMILES IDX 4 1 5 2 6 3 7 4 12 5 13 6 2 7 1 8 3 9 8 10 9 11 10 12 11 13
REMARK H PARENT
ROOT
ATOM      1  C   UNL     1       7.952  -0.216 -16.949  1.00  0.00     0.269 A 
ATOM      2  C   UNL     1       6.769  -0.952 -16.794  1.00  0.00     0.086 A 
ATOM      3  C   UNL     1       6.257  -1.670 -17.879  1.00  0.00     0.020 A 
ATOM      4  C   UNL     1       6.914  -1.660 -19.120  1.00  0.00     0.056 A 
ATOM      5  C   UNL     1       8.099  -0.915 -19.258  1.00  0.00     0.020 A 
ATOM      6  C   UNL     1       8.619  -0.195 -18.180  1.00  0.00     0.086 A 
ENDROOT
BRANCH   1   7
ATOM      7  N   UNL     1       8.492   0.541 -15.813  1.00  0.00     0.062 N 
ATOM      8  O   UNL     1       8.916  -0.101 -14.842  1.00  0.00    -0.258 OA
ATOM      9  O   UNL     1       8.493   1.778 -15.892  1.00  0.00    -0.258 OA
ENDBRANCH   1   7
BRANCH   4  10
ATOM     10  C   UNL     1       6.367  -2.430 -20.302  1.00  0.00     0.416 C 
ATOM     11  F   UNL     1       5.683  -1.653 -21.187  1.00  0.00    -0.166 F 
ATOM     12  F   UNL     1       7.348  -3.043 -21.019  1.00  0.00    -0.166 F 
ATOM     13  F   UNL     1       5.505  -3.414 -19.923  1.00  0.00    -0.166 F 
ENDBRANCH   4  10
TORSDOF 2
ENDMDL
MODEL 3
REMARK VINA RESULT:      -6.1     13.213     14.361
REMARK SMILES O=[N+]([O-])c1ccc(C(F)(F)F)cc1
REMARK SMILES IDX 4 1 5 2 6 3 7 4 12 5 13 6 2 7 1 8 3 9 8 10 9 11 10 12 11 13
REMARK H PARENT
ROOT
ATOM      1  C   UNL     1      -9.017   0.479 -32.635  1.00  0.00     0.269 A 
ATOM      2  C   UNL     1      -8.065   1.500 -32.768  1.00  0.00     0.086 A 
ATOM      3  C   UNL     1      -6.793   1.332 -32.215  1.00  0.00     0.020 A 
ATOM      4  C   UNL     1      -6.459   0.154 -31.527  1.00  0.00     0.056 A 
ATOM      5  C   UNL     1      -7.426  -0.860 -31.402  1.00  0.00     0.020 A 
ATOM      6  C   UNL     1      -8.700  -0.702 -31.953  1.00  0.00     0.086 A 
ENDROOT
BRANCH   1   7
ATOM      7  N   UNL     1     -10.355   0.652 -33.214  1.00  0.00     0.062 N 
ATOM      8  O   UNL     1     -10.787  -0.249 -33.946  1.00  0.00    -0.258 OA
ATOM      9  O   UNL     1     -10.973   1.690 -32.936  1.00  0.00    -0.258 OA
ENDBRANCH   1   7
BRANCH   4  10
ATOM     10  C   UNL     1      -5.086  -0.037 -30.921  1.00  0.00     0.416 C 
ATOM     11  F   UNL     1      -4.842  -1.315 -30.521  1.00  0.00    -0.166 F 
ATOM     12  F   UNL     1      -4.088   0.283 -31.789  1.00  0.00    -0.166 F 
ATOM     13  F   UNL     1      -4.894   0.743 -29.821  1.00  0.00    -0.166 F 
ENDBRANCH   4  10
TORSDOF 2
ENDMDL
MODEL 4
REMARK VINA RESULT:      -6.1     13.189     14.312
REMARK SMILES O=[N+]([O-])c1ccc(C(F)(F)F)cc1
REMARK SMILES IDX 4 1 5 2 6 3 7 4 12 5 13 6 2 7 1 8 3 9 8 10 9 11 10 12 11 13
REMARK H PARENT
ROOT
ATOM      1  C   UNL     1      -9.034   0.479 -32.619  1.00  0.00     0.269 A 
ATOM      2  C   UNL     1      -8.724  -0.739 -32.000  1.00  0.00     0.086 A 
ATOM      3  C   UNL     1      -7.460  -0.923 -31.433  1.00  0.00     0.020 A 
ATOM      4  C   UNL     1      -6.498   0.100 -31.478  1.00  0.00     0.056 A 
ATOM      5  C   UNL     1      -6.825   1.316 -32.105  1.00  0.00     0.020 A 
ATOM      6  C   UNL     1      -8.086   1.510 -32.674  1.00  0.00     0.086 A 
ENDROOT
BRANCH   1   7
ATOM      7  N   UNL     1     -10.361   0.676 -33.217  1.00  0.00     0.062 N 
ATOM      8  O   UNL     1     -10.808  -0.228 -33.936  1.00  0.00    -0.258 OA
ATOM      9  O   UNL     1     -10.954   1.735 -32.967  1.00  0.00    -0.258 OA
ENDBRANCH   1   7
BRANCH   4  10
ATOM     10  C   UNL     1      -5.125  -0.089 -30.872  1.00  0.00     0.416 C 
ATOM     11  F   UNL     1      -4.108   0.162 -31.741  1.00  0.00    -0.166 F 
ATOM     12  F   UNL     1      -4.915   0.727 -29.803  1.00  0.00    -0.166 F 
ATOM     13  F   UNL     1      -4.930  -1.359 -30.421  1.00  0.00    -0.166 F 
ENDBRANCH   4  10
TORSDOF 2
ENDMDL
MODEL 5
REMARK VINA RESULT:      -6.0     15.534     16.628
REMARK SMILES O=[N+]([O-])c1ccc(C(F)(F)F)cc1
REMARK SMILES IDX 4 1 5 2 6 3 7 4 12 5 13 6 2 7 1 8 3 9 8 10 9 11 10 12 11 13
REMARK H PARENT
ROOT
ATOM      1  C   UNL     1       6.943  -1.596 -18.822  1.00  0.00     0.269 A 
ATOM      2  C   UNL     1       6.372  -1.426 -17.554  1.00  0.00     0.086 A 
ATOM      3  C   UNL     1       7.026  -0.637 -16.603  1.00  0.00     0.020 A 
ATOM      4  C   UNL     1       8.248  -0.013 -16.907  1.00  0.00     0.056 A 
ATOM      5  C   UNL     1       8.807  -0.195 -18.184  1.00  0.00     0.020 A 
ATOM      6  C   UNL     1       8.161  -0.981 -19.141  1.00  0.00     0.086 A 
ENDROOT
BRANCH   1   7
ATOM      7  N   UNL     1       6.260  -2.425 -19.823  1.00  0.00     0.062 N 
ATOM      8  O   UNL     1       5.958  -1.896 -20.901  1.00  0.00    -0.258 OA
ATOM      9  O   UNL     1       6.026  -3.606 -19.529  1.00  0.00    -0.258 OA
ENDBRANCH   1   7
BRANCH   4  10
ATOM     10  C   UNL     1       8.967   0.840 -15.885  1.00  0.00     0.416 C 
ATOM     11  F   UNL     1      10.282   1.039 -16.172  1.00  0.00    -0.166 F 
ATOM     12  F   UNL     1       8.416   2.079 -15.767  1.00  0.00    -0.166 F 
ATOM     13  F   UNL     1       8.933   0.292 -14.639  1.00  0.00    -0.166 F 
ENDBRANCH   4  10
TORSDOF 2
ENDMDL
MODEL 6
REMARK VINA RESULT:      -5.9     12.718     13.770
REMARK SMILES O=[N+]([O-])c1ccc(C(F)(F)F)cc1
REMARK SMILES IDX 4 1 5 2 6 3 7 4 12 5 13 6 2 7 1 8 3 9 8 10 9 11 10 12 11 13
REMARK H PARENT
ROOT
ATOM      1  C   UNL     1      -6.220   0.193 -31.511  1.00  0.00     0.269 A 
ATOM      2  C   UNL     1      -6.574   1.247 -32.364  1.00  0.00     0.086 A 
ATOM      3  C   UNL     1      -7.860   1.291 -32.911  1.00  0.00     0.020 A 
ATOM      4  C   UNL     1      -8.799   0.289 -32.615  1.00  0.00     0.056 A 
ATOM      5  C   UNL     1      -8.428  -0.762 -31.758  1.00  0.00     0.020 A 
ATOM      6  C   UNL     1      -7.145  -0.814 -31.206  1.00  0.00     0.086 A 
ENDROOT
BRANCH   1   7
ATOM      7  N   UNL     1      -4.870   0.143 -30.936  1.00  0.00     0.062 N 
ATOM      8  O   UNL     1      -4.139  -0.801 -31.263  1.00  0.00    -0.258 OA
ATOM      9  O   UNL     1      -4.543   1.049 -30.156  1.00  0.00    -0.258 OA
ENDBRANCH   1   7
BRANCH   4  10
ATOM     10  C   UNL     1     -10.192   0.324 -33.204  1.00  0.00     0.416 C 
ATOM     11  F   UNL     1     -11.139  -0.220 -32.391  1.00  0.00    -0.166 F 
ATOM     12  F   UNL     1     -10.609   1.591 -33.472  1.00  0.00    -0.166 F 
ATOM     13  F   UNL     1     -10.272  -0.357 -34.381  1.00  0.00    -0.166 F 
ENDBRANCH   4  10
TORSDOF 2
ENDMDL
MODEL 7
REMARK VINA RESULT:      -5.9     12.749     13.719
REMARK SMILES O=[N+]([O-])c1ccc(C(F)(F)F)cc1
REMARK SMILES IDX 4 1 5 2 6 3 7 4 12 5 13 6 2 7 1 8 3 9 8 10 9 11 10 12 11 13
REMARK H PARENT
ROOT
ATOM      1  C   UNL     1      -6.221   0.144 -31.463  1.00  0.00     0.269 A 
ATOM      2  C   UNL     1      -7.148  -0.861 -31.153  1.00  0.00     0.086 A 
ATOM      3  C   UNL     1      -8.430  -0.813 -31.708  1.00  0.00     0.020 A 
ATOM      4  C   UNL     1      -8.797   0.230 -32.574  1.00  0.00     0.056 A 
ATOM      5  C   UNL     1      -7.856   1.231 -32.875  1.00  0.00     0.020 A 
ATOM      6  C   UNL     1      -6.572   1.191 -32.325  1.00  0.00     0.086 A 
ENDROOT
BRANCH   1   7
ATOM      7  N   UNL     1      -4.875   0.098 -30.881  1.00  0.00     0.062 N 
ATOM      8  O   UNL     1      -4.728   0.538 -29.733  1.00  0.00    -0.258 OA
ATOM      9  O   UNL     1      -3.964  -0.379 -31.573  1.00  0.00    -0.258 OA
ENDBRANCH   1   7
BRANCH   4  10
ATOM     10  C   UNL     1     -10.183   0.295 -33.178  1.00  0.00     0.416 C 
ATOM     11  F   UNL     1     -11.141  -0.285 -32.404  1.00  0.00    -0.166 F 
ATOM     12  F   UNL     1     -10.595   1.574 -33.391  1.00  0.00    -0.166 F 
ATOM     13  F   UNL     1     -10.249  -0.329 -34.387  1.00  0.00    -0.166 F 
ENDBRANCH   4  10
TORSDOF 2
ENDMDL
MODEL 8
REMARK VINA RESULT:      -5.8     10.095     10.864
REMARK SMILES O=[N+]([O-])c1ccc(C(F)(F)F)cc1
REMARK SMILES IDX 4 1 5 2 6 3 7 4 12 5 13 6 2 7 1 8 3 9 8 10 9 11 10 12 11 13
REMARK H PARENT
ROOT
ATOM      1  C   UNL     1      -4.670  -0.752 -26.359  1.00  0.00     0.269 A 
ATOM      2  C   UNL     1      -4.830  -1.756 -27.324  1.00  0.00     0.086 A 
ATOM      3  C   UNL     1      -4.236  -1.607 -28.580  1.00  0.00     0.020 A 
ATOM      4  C   UNL     1      -3.481  -0.462 -28.885  1.00  0.00     0.056 A 
ATOM      5  C   UNL     1      -3.330   0.536 -27.906  1.00  0.00     0.020 A 
ATOM      6  C   UNL     1      -3.919   0.396 -26.647  1.00  0.00     0.086 A 
ENDROOT
BRANCH   1   7
ATOM      7  N   UNL     1      -5.293  -0.904 -25.039  1.00  0.00     0.062 N 
ATOM      8  O   UNL     1      -5.021  -0.062 -24.172  1.00  0.00    -0.258 OA
ATOM      9  O   UNL     1      -6.056  -1.867 -24.870  1.00  0.00    -0.258 OA
ENDBRANCH   1   7
BRANCH   4  10
ATOM     10  C   UNL     1      -2.836  -0.288 -30.242  1.00  0.00     0.416 C 
ATOM     11  F   UNL     1      -2.885  -1.408 -31.014  1.00  0.00    -0.166 F 
ATOM     12  F   UNL     1      -3.426   0.697 -30.972  1.00  0.00    -0.166 F 
ATOM     13  F   UNL     1      -1.520   0.047 -30.149  1.00  0.00    -0.166 F 
ENDBRANCH   4  10
TORSDOF 2
ENDMDL
MODEL 9
REMARK VINA RESULT:      -5.8     10.279     10.979
REMARK SMILES O=[N+]([O-])c1ccc(C(F)(F)F)cc1
REMARK SMILES IDX 4 1 5 2 6 3 7 4 12 5 13 6 2 7 1 8 3 9 8 10 9 11 10 12 11 13
REMARK H PARENT
ROOT
ATOM      1  C   UNL     1      -5.871  -2.045 -29.003  1.00  0.00     0.269 A 
ATOM      2  C   UNL     1      -5.007  -2.095 -27.901  1.00  0.00     0.086 A 
ATOM      3  C   UNL     1      -3.881  -1.266 -27.870  1.00  0.00     0.020 A 
ATOM      4  C   UNL     1      -3.609  -0.387 -28.930  1.00  0.00     0.056 A 
ATOM      5  C   UNL     1      -4.486  -0.350 -30.028  1.00  0.00     0.020 A 
ATOM      6  C   UNL     1      -5.614  -1.173 -30.069  1.00  0.00     0.086 A 
ENDROOT
BRANCH   1   7
ATOM      7  N   UNL     1      -7.054  -2.915 -29.041  1.00  0.00     0.062 N 
ATOM      8  O   UNL     1      -7.327  -3.470 -30.113  1.00  0.00    -0.258 OA
ATOM      9  O   UNL     1      -7.709  -3.040 -27.996  1.00  0.00    -0.258 OA
ENDBRANCH   1   7
BRANCH   4  10
ATOM     10  C   UNL     1      -2.391   0.512 -28.908  1.00  0.00     0.416 C 
ATOM     11  F   UNL     1      -1.419   0.130 -29.781  1.00  0.00    -0.166 F 
ATOM     12  F   UNL     1      -2.694   1.801 -29.224  1.00  0.00    -0.166 F 
ATOM     13  F   UNL     1      -1.801   0.552 -27.682  1.00  0.00    -0.166 F 
ENDBRANCH   4  10
TORSDOF 2
ENDMDL
MODEL 10
REMARK VINA RESULT:      -5.7     11.418     12.622
REMARK SMILES O=[N+]([O-])c1ccc(C(F)(F)F)cc1
REMARK SMILES IDX 4 1 5 2 6 3 7 4 12 5 13 6 2 7 1 8 3 9 8 10 9 11 10 12 11 13
REMARK H PARENT
ROOT
ATOM      1  C   UNL     1      -6.408   0.209 -31.529  1.00  0.00     0.269 A 
ATOM      2  C   UNL     1      -5.241   0.981 -31.449  1.00  0.00     0.086 A 
ATOM      3  C   UNL     1      -4.204   0.579 -30.602  1.00  0.00     0.020 A 
ATOM      4  C   UNL     1      -4.321  -0.589 -29.831  1.00  0.00     0.056 A 
ATOM      5  C   UNL     1      -5.499  -1.352 -29.922  1.00  0.00     0.020 A 
ATOM      6  C   UNL     1      -6.540  -0.959 -30.766  1.00  0.00     0.086 A 
ENDROOT
BRANCH   1   7
ATOM      7  N   UNL     1      -7.500   0.629 -32.416  1.00  0.00     0.062 N 
ATOM      8  O   UNL     1      -7.535   1.817 -32.764  1.00  0.00    -0.258 OA
ATOM      9  O   UNL     1      -8.322  -0.231 -32.764  1.00  0.00    -0.258 OA
ENDBRANCH   1   7
BRANCH   4  10
ATOM     10  C   UNL     1      -3.207  -1.033 -28.908  1.00  0.00     0.416 C 
ATOM     11  F   UNL     1      -3.032  -2.383 -28.877  1.00  0.00    -0.166 F 
ATOM     12  F   UNL     1      -2.002  -0.506 -29.261  1.00  0.00    -0.166 F 
ATOM     13  F   UNL     1      -3.422  -0.652 -27.619  1.00  0.00    -0.166 F 
ENDBRANCH   4  10
TORSDOF 2
ENDMDL
