MODEL 1
REMARK VINA RESULT:      -6.2      0.000      0.000
REMARK SMILES O=[N+]([O-])c1ccc(F)cc1
REMARK SMILES IDX 4 1 5 2 6 3 7 4 8 5 9 6 10 7 2 8 1 9 3 10
REMARK H PARENT
ROOT
ATOM      1  C   UNL     1      -0.324 -11.001 -26.457  1.00  0.00     0.269 A 
ATOM      2  C   UNL     1      -1.123 -11.411 -27.537  1.00  0.00     0.088 A 
ATOM      3  C   UNL     1      -2.007 -10.499 -28.119  1.00  0.00     0.046 A 
ATOM      4  C   UNL     1      -2.083  -9.200 -27.625  1.00  0.00     0.123 A 
ATOM      5  F   UNL     1      -2.931  -8.331 -28.188  1.00  0.00    -0.207 F 
ATOM      6  C   UNL     1      -1.291  -8.787 -26.556  1.00  0.00     0.046 A 
ATOM      7  C   UNL     1      -0.404  -9.689 -25.965  1.00  0.00     0.088 A 
ENDROOT
BRANCH   1   8
ATOM      8  N   UNL     1       0.607 -11.955 -25.839  1.00  0.00     0.062 N 
ATOM      9  O   UNL     1       0.774 -13.046 -26.404  1.00  0.00    -0.258 OA
ATOM     10  O   UNL     1       1.169 -11.613 -24.789  1.00  0.00    -0.258 OA
ENDBRANCH   1   8
TORSDOF 1
ENDMDL
MODEL 2
REMARK VINA RESULT:      -6.0      3.770      4.065
REMARK SMILES O=[N+]([O-])c1ccc(F)cc1
REMARK SMILES IDX 4 1 5 2 6 3 7 4 8 5 9 6 10 7 2 8 1 9 3 10
REMARK H PARENT
ROOT
ATOM      1  C   UNL     1      -1.841  -9.825 -27.204  1.00  0.00     0.269 A 
ATOM      2  C   UNL     1      -1.674 -11.091 -27.788  1.00  0.00     0.088 A 
ATOM      3  C   UNL     1      -0.654 -11.928 -27.329  1.00  0.00     0.046 A 
ATOM      4  C   UNL     1       0.181 -11.497 -26.301  1.00  0.00     0.123 A 
ATOM      5  F   UNL     1       1.157 -12.304 -25.866  1.00  0.00    -0.207 F 
ATOM      6  C   UNL     1       0.020 -10.243 -25.718  1.00  0.00     0.046 A 
ATOM      7  C   UNL     1      -0.997  -9.398 -26.168  1.00  0.00     0.088 A 
ENDROOT
BRANCH   1   8
ATOM      8  N   UNL     1      -2.911  -8.939 -27.683  1.00  0.00     0.062 N 
ATOM      9  O   UNL     1      -3.121  -8.897 -28.904  1.00  0.00    -0.258 OA
ATOM     10  O   UNL     1      -3.541  -8.288 -26.838  1.00  0.00    -0.258 OA
ENDBRANCH   1   8
TORSDOF 1
ENDMDL
MODEL 3
REMARK VINA RESULT:      -5.8     14.235     15.143
REMARK SMILES O=[N+]([O-])c1ccc(F)cc1
REMARK SMILES IDX 4 1 5 2 6 3 7 4 8 5 9 6 10 7 2 8 1 9 3 10
REMARK H PARENT
ROOT
ATOM      1  C   UNL     1       6.866  -1.592 -18.948  1.00  0.00     0.269 A 
ATOM      2  C   UNL     1       6.207  -1.796 -17.725  1.00  0.00     0.088 A 
ATOM      3  C   UNL     1       6.653  -1.124 -16.585  1.00  0.00     0.046 A 
ATOM      4  C   UNL     1       7.741  -0.260 -16.675  1.00  0.00     0.123 A 
ATOM      5  F   UNL     1       8.164   0.381 -15.579  1.00  0.00    -0.207 F 
ATOM      6  C   UNL     1       8.398  -0.052 -17.885  1.00  0.00     0.046 A 
ATOM      7  C   UNL     1       7.962  -0.719 -19.032  1.00  0.00     0.088 A 
ENDROOT
BRANCH   1   8
ATOM      8  N   UNL     1       6.403  -2.297 -20.151  1.00  0.00     0.062 N 
ATOM      9  O   UNL     1       5.833  -1.630 -21.026  1.00  0.00    -0.258 OA
ATOM     10  O   UNL     1       6.611  -3.517 -20.218  1.00  0.00    -0.258 OA
ENDBRANCH   1   8
TORSDOF 1
ENDMDL
MODEL 4
REMARK VINA RESULT:      -5.5     15.302     16.108
REMARK SMILES O=[N+]([O-])c1ccc(F)cc1
REMARK SMILES IDX 4 1 5 2 6 3 7 4 8 5 9 6 10 7 2 8 1 9 3 10
REMARK H PARENT
ROOT
ATOM      1  C   UNL     1       8.159  -0.908 -16.685  1.00  0.00     0.269 A 
ATOM      2  C   UNL     1       8.784  -0.596 -17.903  1.00  0.00     0.088 A 
ATOM      3  C   UNL     1       8.068  -0.732 -19.095  1.00  0.00     0.046 A 
ATOM      4  C   UNL     1       6.747  -1.172 -19.060  1.00  0.00     0.123 A 
ATOM      5  F   UNL     1       6.067  -1.300 -20.206  1.00  0.00    -0.207 F 
ATOM      6  C   UNL     1       6.122  -1.481 -17.856  1.00  0.00     0.046 A 
ATOM      7  C   UNL     1       6.827  -1.350 -16.657  1.00  0.00     0.088 A 
ENDROOT
BRANCH   1   8
ATOM      8  N   UNL     1       8.906  -0.769 -15.428  1.00  0.00     0.062 N 
ATOM      9  O   UNL     1       9.380  -1.797 -14.923  1.00  0.00    -0.258 OA
ATOM     10  O   UNL     1       9.019   0.368 -14.948  1.00  0.00    -0.258 OA
ENDBRANCH   1   8
TORSDOF 1
ENDMDL
MODEL 5
REMARK VINA RESULT:      -5.5     10.333     11.011
REMARK SMILES O=[N+]([O-])c1ccc(F)cc1
REMARK SMILES IDX 4 1 5 2 6 3 7 4 8 5 9 6 10 7 2 8 1 9 3 10
REMARK H PARENT
ROOT
ATOM      1  C   UNL     1      -4.122  -0.598 -27.060  1.00  0.00     0.269 A 
ATOM      2  C   UNL     1      -3.340   0.566 -26.974  1.00  0.00     0.088 A 
ATOM      3  C   UNL     1      -2.401   0.835 -27.972  1.00  0.00     0.046 A 
ATOM      4  C   UNL     1      -2.254  -0.049 -29.037  1.00  0.00     0.123 A 
ATOM      5  F   UNL     1      -1.352   0.215 -29.990  1.00  0.00    -0.207 F 
ATOM      6  C   UNL     1      -3.027  -1.204 -29.128  1.00  0.00     0.046 A 
ATOM      7  C   UNL     1      -3.969  -1.484 -28.137  1.00  0.00     0.088 A 
ENDROOT
BRANCH   1   8
ATOM      8  N   UNL     1      -5.111  -0.888 -26.012  1.00  0.00     0.062 N 
ATOM      9  O   UNL     1      -5.974  -1.743 -26.256  1.00  0.00    -0.258 OA
ATOM     10  O   UNL     1      -5.021  -0.262 -24.947  1.00  0.00    -0.258 OA
ENDBRANCH   1   8
TORSDOF 1
ENDMDL
MODEL 6
REMARK VINA RESULT:      -5.5     10.324     10.891
REMARK SMILES O=[N+]([O-])c1ccc(F)cc1
REMARK SMILES IDX 4 1 5 2 6 3 7 4 8 5 9 6 10 7 2 8 1 9 3 10
REMARK H PARENT
ROOT
ATOM      1  C   UNL     1      -4.166  -0.625 -27.090  1.00  0.00     0.269 A 
ATOM      2  C   UNL     1      -4.001  -1.532 -28.149  1.00  0.00     0.088 A 
ATOM      3  C   UNL     1      -3.052  -1.264 -29.138  1.00  0.00     0.046 A 
ATOM      4  C   UNL     1      -2.282  -0.107 -29.060  1.00  0.00     0.123 A 
ATOM      5  F   UNL     1      -1.374   0.143 -30.011  1.00  0.00    -0.207 F 
ATOM      6  C   UNL     1      -2.441   0.795 -28.011  1.00  0.00     0.046 A 
ATOM      7  C   UNL     1      -3.387   0.539 -27.017  1.00  0.00     0.088 A 
ENDROOT
BRANCH   1   8
ATOM      8  N   UNL     1      -5.164  -0.900 -26.047  1.00  0.00     0.062 N 
ATOM      9  O   UNL     1      -6.048  -1.731 -26.300  1.00  0.00    -0.258 OA
ATOM     10  O   UNL     1      -5.063  -0.284 -24.977  1.00  0.00    -0.258 OA
ENDBRANCH   1   8
TORSDOF 1
ENDMDL
MODEL 7
REMARK VINA RESULT:      -5.4      2.029      2.644
REMARK SMILES O=[N+]([O-])c1ccc(F)cc1
REMARK SMILES IDX 4 1 5 2 6 3 7 4 8 5 9 6 10 7 2 8 1 9 3 10
REMARK H PARENT
ROOT
ATOM      1  C   UNL     1      -1.485  -9.918 -27.125  1.00  0.00     0.269 A 
ATOM      2  C   UNL     1      -1.973  -8.616 -26.935  1.00  0.00     0.088 A 
ATOM      3  C   UNL     1      -3.347  -8.380 -27.016  1.00  0.00     0.046 A 
ATOM      4  C   UNL     1      -4.214  -9.437 -27.282  1.00  0.00     0.123 A 
ATOM      5  F   UNL     1      -5.530  -9.205 -27.358  1.00  0.00    -0.207 F 
ATOM      6  C   UNL     1      -3.736 -10.732 -27.470  1.00  0.00     0.046 A 
ATOM      7  C   UNL     1      -2.364 -10.980 -27.391  1.00  0.00     0.088 A 
ENDROOT
BRANCH   1   8
ATOM      8  N   UNL     1      -0.040 -10.173 -27.043  1.00  0.00     0.062 N 
ATOM      9  O   UNL     1       0.335 -11.353 -27.002  1.00  0.00    -0.258 OA
ATOM     10  O   UNL     1       0.717  -9.192 -27.020  1.00  0.00    -0.258 OA
ENDBRANCH   1   8
TORSDOF 1
ENDMDL
MODEL 8
REMARK VINA RESULT:      -5.3     14.965     15.749
REMARK SMILES O=[N+]([O-])c1ccc(F)cc1
REMARK SMILES IDX 4 1 5 2 6 3 7 4 8 5 9 6 10 7 2 8 1 9 3 10
REMARK H PARENT
ROOT
ATOM      1  C   UNL     1       7.342  -0.220 -17.523  1.00  0.00     0.269 A 
ATOM      2  C   UNL     1       6.516  -1.060 -16.758  1.00  0.00     0.088 A 
ATOM      3  C   UNL     1       6.016  -2.233 -17.327  1.00  0.00     0.046 A 
ATOM      4  C   UNL     1       6.343  -2.556 -18.641  1.00  0.00     0.123 A 
ATOM      5  F   UNL     1       5.861  -3.683 -19.180  1.00  0.00    -0.207 F 
ATOM      6  C   UNL     1       7.163  -1.729 -19.404  1.00  0.00     0.046 A 
ATOM      7  C   UNL     1       7.668  -0.553 -18.847  1.00  0.00     0.088 A 
ENDROOT
BRANCH   1   8
ATOM      8  N   UNL     1       7.869   1.017 -16.932  1.00  0.00     0.062 N 
ATOM      9  O   UNL     1       7.100   1.985 -16.841  1.00  0.00    -0.258 OA
ATOM     10  O   UNL     1       9.050   1.018 -16.559  1.00  0.00    -0.258 OA
ENDBRANCH   1   8
TORSDOF 1
ENDMDL
MODEL 9
REMARK VINA RESULT:      -5.3     14.269     15.059
REMARK SMILES O=[N+]([O-])c1ccc(F)cc1
REMARK SMILES IDX 4 1 5 2 6 3 7 4 8 5 9 6 10 7 2 8 1 9 3 10
REMARK H PARENT
ROOT
ATOM      1  C   UNL     1      -9.021   0.483 -32.690  1.00  0.00     0.269 A 
ATOM      2  C   UNL     1      -8.047   1.465 -32.932  1.00  0.00     0.088 A 
ATOM      3  C   UNL     1      -6.758   1.291 -32.423  1.00  0.00     0.046 A 
ATOM      4  C   UNL     1      -6.455   0.149 -31.687  1.00  0.00     0.123 A 
ATOM      5  F   UNL     1      -5.217  -0.011 -31.204  1.00  0.00    -0.207 F 
ATOM      6  C   UNL     1      -7.416  -0.829 -31.445  1.00  0.00     0.046 A 
ATOM      7  C   UNL     1      -8.708  -0.667 -31.947  1.00  0.00     0.088 A 
ENDROOT
BRANCH   1   8
ATOM      8  N   UNL     1     -10.380   0.660 -33.219  1.00  0.00     0.062 N 
ATOM      9  O   UNL     1     -10.849  -0.250 -33.919  1.00  0.00    -0.258 OA
ATOM     10  O   UNL     1     -10.977   1.708 -32.935  1.00  0.00    -0.258 OA
ENDBRANCH   1   8
TORSDOF 1
ENDMDL
MODEL 10
REMARK VINA RESULT:      -5.3     14.270     15.026
REMARK SMILES O=[N+]([O-])c1ccc(F)cc1
REMARK SMILES IDX 4 1 5 2 6 3 7 4 8 5 9 6 10 7 2 8 1 9 3 10
REMARK H PARENT
ROOT
ATOM      1  C   UNL     1      -9.029   0.482 -32.688  1.00  0.00     0.269 A 
ATOM      2  C   UNL     1      -8.715  -0.675 -31.957  1.00  0.00     0.088 A 
ATOM      3  C   UNL     1      -7.422  -0.839 -31.454  1.00  0.00     0.046 A 
ATOM      4  C   UNL     1      -6.464   0.145 -31.682  1.00  0.00     0.123 A 
ATOM      5  F   UNL     1      -5.227  -0.018 -31.197  1.00  0.00    -0.207 F 
ATOM      6  C   UNL     1      -6.769   1.295 -32.405  1.00  0.00     0.046 A 
ATOM      7  C   UNL     1      -8.058   1.470 -32.913  1.00  0.00     0.088 A 
ENDROOT
BRANCH   1   8
ATOM      8  N   UNL     1     -10.386   0.660 -33.221  1.00  0.00     0.062 N 
ATOM      9  O   UNL     1     -10.856  -0.253 -33.916  1.00  0.00    -0.258 OA
ATOM     10  O   UNL     1     -10.980   1.711 -32.944  1.00  0.00    -0.258 OA
ENDBRANCH   1   8
TORSDOF 1
ENDMDL
