MODEL 1
REMARK VINA RESULT:      -6.1      0.000      0.000
REMARK SMILES Cc1ccc(C(C)C)c(O)c1
REMARK SMILES IDX 1 1 2 2 11 3 9 4 5 5 4 6 3 7 10 8 6 10 7 11 8 12
REMARK H PARENT 10 9
ROOT
ATOM      1  C   UNL     1       6.106  -2.134 -20.734  1.00  0.00     0.044 C 
ATOM      2  C   UNL     1       6.725  -1.658 -19.454  1.00  0.00    -0.047 A 
ATOM      3  C   UNL     1       6.057  -1.824 -18.236  1.00  0.00     0.049 A 
ATOM      4  C   UNL     1       6.623  -1.349 -17.050  1.00  0.00     0.119 A 
ATOM      5  C   UNL     1       7.858  -0.688 -17.045  1.00  0.00    -0.004 A 
ATOM      6  C   UNL     1       8.513  -0.514 -18.276  1.00  0.00     0.008 A 
ATOM      7  C   UNL     1       7.951  -0.987 -19.465  1.00  0.00     0.004 A 
ENDROOT
BRANCH   4   8
ATOM      8  O   UNL     1       5.959  -1.530 -15.867  1.00  0.00    -0.508 OA
ATOM      9  H   UNL     1       6.573  -1.910 -15.219  1.00  0.00     0.293 HD
ENDBRANCH   4   8
BRANCH   5  10
ATOM     10  C   UNL     1       8.479  -0.172 -15.755  1.00  0.00     0.017 C 
ATOM     11  C   UNL     1       9.593  -1.099 -15.262  1.00  0.00     0.012 C 
ATOM     12  C   UNL     1       8.994   1.263 -15.912  1.00  0.00     0.012 C 
ENDBRANCH   5  10
TORSDOF 2
ENDMDL
MODEL 2
REMARK VINA RESULT:      -5.9      1.105      4.158
REMARK SMILES Cc1ccc(C(C)C)c(O)c1
REMARK SMILES IDX 1 1 2 2 11 3 9 4 5 5 4 6 3 7 10 8 6 10 7 11 8 12
REMARK H PARENT 10 9
ROOT
ATOM      1  C   UNL     1       8.631   0.953 -15.692  1.00  0.00     0.044 C 
ATOM      2  C   UNL     1       8.048   0.098 -16.777  1.00  0.00    -0.047 A 
ATOM      3  C   UNL     1       7.049  -0.838 -16.485  1.00  0.00     0.049 A 
ATOM      4  C   UNL     1       6.532  -1.655 -17.494  1.00  0.00     0.119 A 
ATOM      5  C   UNL     1       7.001  -1.573 -18.812  1.00  0.00    -0.004 A 
ATOM      6  C   UNL     1       8.014  -0.639 -19.089  1.00  0.00     0.008 A 
ATOM      7  C   UNL     1       8.535   0.181 -18.084  1.00  0.00     0.004 A 
ENDROOT
BRANCH   4   8
ATOM      8  O   UNL     1       5.549  -2.557 -17.191  1.00  0.00    -0.508 OA
ATOM      9  H   UNL     1       5.703  -2.896 -16.295  1.00  0.00     0.293 HD
ENDBRANCH   4   8
BRANCH   5  10
ATOM     10  C   UNL     1       6.439  -2.460 -19.913  1.00  0.00     0.017 C 
ATOM     11  C   UNL     1       5.716  -1.633 -20.980  1.00  0.00     0.012 C 
ATOM     12  C   UNL     1       7.527  -3.333 -20.545  1.00  0.00     0.012 C 
ENDBRANCH   5  10
TORSDOF 2
ENDMDL
MODEL 3
REMARK VINA RESULT:      -5.7      1.679      4.601
REMARK SMILES Cc1ccc(C(C)C)c(O)c1
REMARK SMILES IDX 1 1 2 2 11 3 9 4 5 5 4 6 3 7 10 8 6 10 7 11 8 12
REMARK H PARENT 10 9
ROOT
ATOM      1  C   UNL     1      11.425   1.314 -14.623  1.00  0.00     0.044 C 
ATOM      2  C   UNL     1      10.262   0.820 -15.430  1.00  0.00    -0.047 A 
ATOM      3  C   UNL     1       9.204   1.678 -15.752  1.00  0.00     0.049 A 
ATOM      4  C   UNL     1       8.107   1.204 -16.477  1.00  0.00     0.119 A 
ATOM      5  C   UNL     1       8.027  -0.133 -16.887  1.00  0.00    -0.004 A 
ATOM      6  C   UNL     1       9.088  -0.988 -16.545  1.00  0.00     0.008 A 
ATOM      7  C   UNL     1      10.188  -0.520 -15.821  1.00  0.00     0.004 A 
ENDROOT
BRANCH   4   8
ATOM      8  O   UNL     1       7.087   2.061 -16.791  1.00  0.00    -0.508 OA
ATOM      9  H   UNL     1       7.463   2.933 -16.989  1.00  0.00     0.293 HD
ENDBRANCH   4   8
BRANCH   5  10
ATOM     10  C   UNL     1       6.835  -0.652 -17.678  1.00  0.00     0.017 C 
ATOM     11  C   UNL     1       7.238  -1.041 -19.103  1.00  0.00     0.012 C 
ATOM     12  C   UNL     1       6.153  -1.824 -16.966  1.00  0.00     0.012 C 
ENDBRANCH   5  10
TORSDOF 2
ENDMDL
MODEL 4
REMARK VINA RESULT:      -5.6     14.020     15.783
REMARK SMILES Cc1ccc(C(C)C)c(O)c1
REMARK SMILES IDX 1 1 2 2 11 3 9 4 5 5 4 6 3 7 10 8 6 10 7 11 8 12
REMARK H PARENT 10 9
ROOT
ATOM      1  C   UNL     1      -3.019  -8.782 -28.225  1.00  0.00     0.044 C 
ATOM      2  C   UNL     1      -1.968  -9.566 -27.499  1.00  0.00    -0.047 A 
ATOM      3  C   UNL     1      -1.751 -10.915 -27.802  1.00  0.00     0.049 A 
ATOM      4  C   UNL     1      -0.792 -11.650 -27.100  1.00  0.00     0.119 A 
ATOM      5  C   UNL     1      -0.035 -11.070 -26.073  1.00  0.00    -0.004 A 
ATOM      6  C   UNL     1      -0.272  -9.718 -25.769  1.00  0.00     0.008 A 
ATOM      7  C   UNL     1      -1.230  -8.978 -26.468  1.00  0.00     0.004 A 
ENDROOT
BRANCH   4   8
ATOM      8  O   UNL     1      -0.587 -12.966 -27.417  1.00  0.00    -0.508 OA
ATOM      9  H   UNL     1      -1.291 -13.497 -27.011  1.00  0.00     0.293 HD
ENDBRANCH   4   8
BRANCH   5  10
ATOM     10  C   UNL     1       1.011 -11.866 -25.309  1.00  0.00     0.017 C 
ATOM     11  C   UNL     1       1.700 -11.007 -24.245  1.00  0.00     0.012 C 
ATOM     12  C   UNL     1       0.412 -13.130 -24.683  1.00  0.00     0.012 C 
ENDBRANCH   5  10
TORSDOF 2
ENDMDL
MODEL 5
REMARK VINA RESULT:      -5.5     14.476     15.364
REMARK SMILES Cc1ccc(C(C)C)c(O)c1
REMARK SMILES IDX 1 1 2 2 11 3 9 4 5 5 4 6 3 7 10 8 6 10 7 11 8 12
REMARK H PARENT 10 9
ROOT
ATOM      1  C   UNL     1      -2.006  -0.210 -29.958  1.00  0.00     0.044 C 
ATOM      2  C   UNL     1      -2.862  -0.336 -28.733  1.00  0.00    -0.047 A 
ATOM      3  C   UNL     1      -3.675  -1.459 -28.547  1.00  0.00     0.049 A 
ATOM      4  C   UNL     1      -4.496  -1.556 -27.419  1.00  0.00     0.119 A 
ATOM      5  C   UNL     1      -4.538  -0.538 -26.458  1.00  0.00    -0.004 A 
ATOM      6  C   UNL     1      -3.727   0.591 -26.664  1.00  0.00     0.008 A 
ATOM      7  C   UNL     1      -2.905   0.694 -27.790  1.00  0.00     0.004 A 
ENDROOT
BRANCH   4   8
ATOM      8  O   UNL     1      -5.277  -2.666 -27.250  1.00  0.00    -0.508 OA
ATOM      9  H   UNL     1      -6.207  -2.392 -27.221  1.00  0.00     0.293 HD
ENDBRANCH   4   8
BRANCH   5  10
ATOM     10  C   UNL     1      -5.428  -0.641 -25.229  1.00  0.00     0.017 C 
ATOM     11  C   UNL     1      -4.880   0.197 -24.071  1.00  0.00     0.012 C 
ATOM     12  C   UNL     1      -6.875  -0.252 -25.545  1.00  0.00     0.012 C 
ENDBRANCH   5  10
TORSDOF 2
ENDMDL
MODEL 6
REMARK VINA RESULT:      -5.4     15.063     16.354
REMARK SMILES Cc1ccc(C(C)C)c(O)c1
REMARK SMILES IDX 1 1 2 2 11 3 9 4 5 5 4 6 3 7 10 8 6 10 7 11 8 12
REMARK H PARENT 10 9
ROOT
ATOM      1  C   UNL     1      -4.471   4.765 -28.894  1.00  0.00     0.044 C 
ATOM      2  C   UNL     1      -4.223   3.292 -28.758  1.00  0.00    -0.047 A 
ATOM      3  C   UNL     1      -3.003   2.819 -28.264  1.00  0.00     0.049 A 
ATOM      4  C   UNL     1      -2.765   1.445 -28.170  1.00  0.00     0.119 A 
ATOM      5  C   UNL     1      -3.725   0.509 -28.575  1.00  0.00    -0.004 A 
ATOM      6  C   UNL     1      -4.941   0.997 -29.083  1.00  0.00     0.008 A 
ATOM      7  C   UNL     1      -5.185   2.370 -29.179  1.00  0.00     0.004 A 
ENDROOT
BRANCH   4   8
ATOM      8  O   UNL     1      -1.569   1.002 -27.675  1.00  0.00    -0.508 OA
ATOM      9  H   UNL     1      -1.178   1.703 -27.130  1.00  0.00     0.293 HD
ENDBRANCH   4   8
BRANCH   5  10
ATOM     10  C   UNL     1      -3.471  -0.987 -28.472  1.00  0.00     0.017 C 
ATOM     11  C   UNL     1      -4.465  -1.658 -27.520  1.00  0.00     0.012 C 
ATOM     12  C   UNL     1      -3.496  -1.660 -29.848  1.00  0.00     0.012 C 
ENDBRANCH   5  10
TORSDOF 2
ENDMDL
MODEL 7
REMARK VINA RESULT:      -5.3      1.922      4.496
REMARK SMILES Cc1ccc(C(C)C)c(O)c1
REMARK SMILES IDX 1 1 2 2 11 3 9 4 5 5 4 6 3 7 10 8 6 10 7 11 8 12
REMARK H PARENT 10 9
ROOT
ATOM      1  C   UNL     1       8.719   1.265 -15.947  1.00  0.00     0.044 C 
ATOM      2  C   UNL     1       8.201   0.284 -16.955  1.00  0.00    -0.047 A 
ATOM      3  C   UNL     1       9.086  -0.449 -17.753  1.00  0.00     0.049 A 
ATOM      4  C   UNL     1       8.597  -1.339 -18.714  1.00  0.00     0.119 A 
ATOM      5  C   UNL     1       7.221  -1.513 -18.914  1.00  0.00    -0.004 A 
ATOM      6  C   UNL     1       6.343  -0.761 -18.115  1.00  0.00     0.008 A 
ATOM      7  C   UNL     1       6.826   0.130 -17.153  1.00  0.00     0.004 A 
ENDROOT
BRANCH   4   8
ATOM      8  O   UNL     1       9.478  -2.054 -19.479  1.00  0.00    -0.508 OA
ATOM      9  H   UNL     1       8.984  -2.722 -19.981  1.00  0.00     0.293 HD
ENDBRANCH   4   8
BRANCH   5  10
ATOM     10  C   UNL     1       6.686  -2.483 -19.957  1.00  0.00     0.017 C 
ATOM     11  C   UNL     1       5.849  -3.591 -19.311  1.00  0.00     0.012 C 
ATOM     12  C   UNL     1       5.884  -1.757 -21.042  1.00  0.00     0.012 C 
ENDBRANCH   5  10
TORSDOF 2
ENDMDL
MODEL 8
REMARK VINA RESULT:      -5.3     16.550     19.466
REMARK SMILES Cc1ccc(C(C)C)c(O)c1
REMARK SMILES IDX 1 1 2 2 11 3 9 4 5 5 4 6 3 7 10 8 6 10 7 11 8 12
REMARK H PARENT 10 9
ROOT
ATOM      1  C   UNL     1      -3.381  -1.958 -29.289  1.00  0.00     0.044 C 
ATOM      2  C   UNL     1      -4.322  -1.112 -30.093  1.00  0.00    -0.047 A 
ATOM      3  C   UNL     1      -3.842  -0.035 -30.846  1.00  0.00     0.049 A 
ATOM      4  C   UNL     1      -4.727   0.771 -31.569  1.00  0.00     0.119 A 
ATOM      5  C   UNL     1      -6.108   0.536 -31.550  1.00  0.00    -0.004 A 
ATOM      6  C   UNL     1      -6.579  -0.541 -30.779  1.00  0.00     0.008 A 
ATOM      7  C   UNL     1      -5.699  -1.349 -30.055  1.00  0.00     0.004 A 
ENDROOT
BRANCH   4   8
ATOM      8  O   UNL     1      -4.238   1.814 -32.307  1.00  0.00    -0.508 OA
ATOM      9  H   UNL     1      -4.942   2.472 -32.421  1.00  0.00     0.293 HD
ENDBRANCH   4   8
BRANCH   5  10
ATOM     10  C   UNL     1      -7.074   1.409 -32.337  1.00  0.00     0.017 C 
ATOM     11  C   UNL     1      -7.695   0.640 -33.507  1.00  0.00     0.012 C 
ATOM     12  C   UNL     1      -8.162   2.000 -31.435  1.00  0.00     0.012 C 
ENDBRANCH   5  10
TORSDOF 2
ENDMDL
MODEL 9
REMARK VINA RESULT:      -5.2     20.488     21.734
REMARK SMILES Cc1ccc(C(C)C)c(O)c1
REMARK SMILES IDX 1 1 2 2 11 3 9 4 5 5 4 6 3 7 10 8 6 10 7 11 8 12
REMARK H PARENT 10 9
ROOT
ATOM      1  C   UNL     1     -12.052  -5.761 -25.672  1.00  0.00     0.044 C 
ATOM      2  C   UNL     1     -11.359  -5.272 -26.909  1.00  0.00    -0.047 A 
ATOM      3  C   UNL     1     -11.604  -5.877 -28.147  1.00  0.00     0.049 A 
ATOM      4  C   UNL     1     -10.931  -5.438 -29.291  1.00  0.00     0.119 A 
ATOM      5  C   UNL     1      -9.991  -4.401 -29.232  1.00  0.00    -0.004 A 
ATOM      6  C   UNL     1      -9.744  -3.812 -27.980  1.00  0.00     0.008 A 
ATOM      7  C   UNL     1     -10.415  -4.245 -26.833  1.00  0.00     0.004 A 
ENDROOT
BRANCH   4   8
ATOM      8  O   UNL     1     -11.190  -6.035 -30.494  1.00  0.00    -0.508 OA
ATOM      9  H   UNL     1     -10.360  -6.386 -30.854  1.00  0.00     0.293 HD
ENDBRANCH   4   8
BRANCH   5  10
ATOM     10  C   UNL     1      -9.259  -3.919 -30.475  1.00  0.00     0.017 C 
ATOM     11  C   UNL     1      -9.809  -2.576 -30.962  1.00  0.00     0.012 C 
ATOM     12  C   UNL     1      -7.747  -3.837 -30.242  1.00  0.00     0.012 C 
ENDBRANCH   5  10
TORSDOF 2
ENDMDL
MODEL 10
REMARK VINA RESULT:      -5.2     17.894     20.478
REMARK SMILES Cc1ccc(C(C)C)c(O)c1
REMARK SMILES IDX 1 1 2 2 11 3 9 4 5 5 4 6 3 7 10 8 6 10 7 11 8 12
REMARK H PARENT 10 9
ROOT
ATOM      1  C   UNL     1     -10.172   0.139 -33.777  1.00  0.00     0.044 C 
ATOM      2  C   UNL     1      -8.889   0.070 -33.003  1.00  0.00    -0.047 A 
ATOM      3  C   UNL     1      -8.672  -0.955 -32.076  1.00  0.00     0.049 A 
ATOM      4  C   UNL     1      -7.488  -0.996 -31.334  1.00  0.00     0.119 A 
ATOM      5  C   UNL     1      -6.498  -0.015 -31.485  1.00  0.00    -0.004 A 
ATOM      6  C   UNL     1      -6.735   1.017 -32.409  1.00  0.00     0.008 A 
ATOM      7  C   UNL     1      -7.917   1.063 -33.154  1.00  0.00     0.004 A 
ENDROOT
BRANCH   4   8
ATOM      8  O   UNL     1      -7.289  -2.011 -30.439  1.00  0.00    -0.508 OA
ATOM      9  H   UNL     1      -7.097  -1.627 -29.569  1.00  0.00     0.293 HD
ENDBRANCH   4   8
BRANCH   5  10
ATOM     10  C   UNL     1      -5.208  -0.058 -30.681  1.00  0.00     0.017 C 
ATOM     11  C   UNL     1      -4.016   0.426 -31.513  1.00  0.00     0.012 C 
ATOM     12  C   UNL     1      -5.326   0.744 -29.382  1.00  0.00     0.012 C 
ENDBRANCH   5  10
TORSDOF 2
ENDMDL
