MODEL 1
REMARK VINA RESULT:      -6.7      0.000      0.000
REMARK SMILES O=c1ccccc2c(O)cc(O)cc12
REMARK SMILES IDX 1 1 2 2 3 3 4 4 5 5 6 6 7 7 14 8 13 9 11 10 10 11 8 12 9 13
REMARK SMILES IDX 12 15
REMARK H PARENT 9 14 12 16
ROOT
ATOM      1  O   UNL     1      -6.369   2.068 -27.850  1.00  0.00    -0.289 OA
ATOM      2  C   UNL     1      -6.123   1.760 -29.019  1.00  0.00     0.186 A 
ATOM      3  C   UNL     1      -7.206   2.019 -30.029  1.00  0.00     0.052 A 
ATOM      4  C   UNL     1      -7.163   1.869 -31.363  1.00  0.00     0.004 A 
ATOM      5  C   UNL     1      -5.973   1.379 -32.016  1.00  0.00     0.001 A 
ATOM      6  C   UNL     1      -5.495   0.225 -31.525  1.00  0.00     0.013 A 
ATOM      7  C   UNL     1      -4.451   0.456 -30.514  1.00  0.00     0.028 A 
ATOM      8  C   UNL     1      -4.767   1.182 -29.340  1.00  0.00     0.036 A 
ATOM      9  C   UNL     1      -3.767   1.364 -28.368  1.00  0.00     0.059 A 
ATOM     10  C   UNL     1      -2.491   0.845 -28.570  1.00  0.00     0.120 A 
ATOM     11  C   UNL     1      -2.177   0.135 -29.722  1.00  0.00     0.093 A 
ATOM     12  C   UNL     1      -3.159  -0.062 -30.688  1.00  0.00     0.127 A 
ENDROOT
BRANCH  12  13
ATOM     13  O   UNL     1      -2.869  -0.771 -31.822  1.00  0.00    -0.507 OA
ATOM     14  H   UNL     1      -3.676  -0.861 -32.356  1.00  0.00     0.293 HD
ENDBRANCH  12  13
BRANCH  10  15
ATOM     15  O   UNL     1      -1.505   1.010 -27.641  1.00  0.00    -0.508 OA
ATOM     16  H   UNL     1      -1.492   0.234 -27.054  1.00  0.00     0.293 HD
ENDBRANCH  10  15
TORSDOF 2
ENDMDL
MODEL 2
REMARK VINA RESULT:      -6.6      2.151      3.929
REMARK SMILES O=c1ccccc2c(O)cc(O)cc12
REMARK SMILES IDX 1 1 2 2 3 3 4 4 5 5 6 6 7 7 14 8 13 9 11 10 10 11 8 12 9 13
REMARK SMILES IDX 12 15
REMARK H PARENT 9 14 12 16
ROOT
ATOM      1  O   UNL     1      -7.021  -0.857 -29.388  1.00  0.00    -0.289 OA
ATOM      2  C   UNL     1      -6.189  -0.703 -28.491  1.00  0.00     0.186 A 
ATOM      3  C   UNL     1      -6.688  -0.831 -27.078  1.00  0.00     0.052 A 
ATOM      4  C   UNL     1      -5.984  -0.807 -25.934  1.00  0.00     0.004 A 
ATOM      5  C   UNL     1      -4.553  -0.615 -25.948  1.00  0.00     0.001 A 
ATOM      6  C   UNL     1      -4.136   0.462 -26.632  1.00  0.00     0.013 A 
ATOM      7  C   UNL     1      -3.775   0.120 -28.017  1.00  0.00     0.028 A 
ATOM      8  C   UNL     1      -4.758  -0.429 -28.877  1.00  0.00     0.036 A 
ATOM      9  C   UNL     1      -4.406  -0.718 -30.208  1.00  0.00     0.059 A 
ATOM     10  C   UNL     1      -3.111  -0.476 -30.658  1.00  0.00     0.120 A 
ATOM     11  C   UNL     1      -2.144   0.059 -29.817  1.00  0.00     0.093 A 
ATOM     12  C   UNL     1      -2.481   0.361 -28.500  1.00  0.00     0.127 A 
ENDROOT
BRANCH  12  13
ATOM     13  O   UNL     1      -1.542   0.901 -27.662  1.00  0.00    -0.507 OA
ATOM     14  H   UNL     1      -1.989   1.266 -26.880  1.00  0.00     0.293 HD
ENDBRANCH  12  13
BRANCH  10  15
ATOM     15  O   UNL     1      -2.747  -0.749 -31.944  1.00  0.00    -0.508 OA
ATOM     16  H   UNL     1      -1.776  -0.800 -31.993  1.00  0.00     0.293 HD
ENDBRANCH  10  15
TORSDOF 2
ENDMDL
MODEL 3
REMARK VINA RESULT:      -6.5      4.119      5.628
REMARK SMILES O=c1ccccc2c(O)cc(O)cc12
REMARK SMILES IDX 1 1 2 2 3 3 4 4 5 5 6 6 7 7 14 8 13 9 11 10 10 11 8 12 9 13
REMARK SMILES IDX 12 15
REMARK H PARENT 9 14 12 16
ROOT
ATOM      1  O   UNL     1     -11.640  -0.616 -32.659  1.00  0.00    -0.289 OA
ATOM      2  C   UNL     1     -10.545  -0.072 -32.497  1.00  0.00     0.186 A 
ATOM      3  C   UNL     1     -10.376   1.299 -33.090  1.00  0.00     0.052 A 
ATOM      4  C   UNL     1      -9.334   2.140 -32.977  1.00  0.00     0.004 A 
ATOM      5  C   UNL     1      -8.159   1.768 -32.226  1.00  0.00     0.001 A 
ATOM      6  C   UNL     1      -7.615   0.592 -32.577  1.00  0.00     0.013 A 
ATOM      7  C   UNL     1      -8.105  -0.507 -31.730  1.00  0.00     0.028 A 
ATOM      8  C   UNL     1      -9.490  -0.804 -31.706  1.00  0.00     0.036 A 
ATOM      9  C   UNL     1      -9.937  -1.879 -30.917  1.00  0.00     0.059 A 
ATOM     10  C   UNL     1      -9.029  -2.626 -30.171  1.00  0.00     0.120 A 
ATOM     11  C   UNL     1      -7.671  -2.335 -30.190  1.00  0.00     0.093 A 
ATOM     12  C   UNL     1      -7.212  -1.281 -30.974  1.00  0.00     0.127 A 
ENDROOT
BRANCH  12  13
ATOM     13  O   UNL     1      -5.875  -0.991 -31.013  1.00  0.00    -0.507 OA
ATOM     14  H   UNL     1      -5.759  -0.062 -31.276  1.00  0.00     0.293 HD
ENDBRANCH  12  13
BRANCH  10  15
ATOM     15  O   UNL     1      -9.440  -3.673 -29.399  1.00  0.00    -0.508 OA
ATOM     16  H   UNL     1      -8.881  -3.716 -28.603  1.00  0.00     0.293 HD
ENDBRANCH  10  15
TORSDOF 2
ENDMDL
MODEL 4
REMARK VINA RESULT:      -6.4      1.380      4.911
REMARK SMILES O=c1ccccc2c(O)cc(O)cc12
REMARK SMILES IDX 1 1 2 2 3 3 4 4 5 5 6 6 7 7 14 8 13 9 11 10 10 11 8 12 9 13
REMARK SMILES IDX 12 15
REMARK H PARENT 9 14 12 16
ROOT
ATOM      1  O   UNL     1      -3.291  -0.820 -31.478  1.00  0.00    -0.289 OA
ATOM      2  C   UNL     1      -3.327  -0.065 -30.503  1.00  0.00     0.186 A 
ATOM      3  C   UNL     1      -2.131  -0.079 -29.592  1.00  0.00     0.052 A 
ATOM      4  C   UNL     1      -1.875   0.704 -28.531  1.00  0.00     0.004 A 
ATOM      5  C   UNL     1      -2.818   1.711 -28.107  1.00  0.00     0.001 A 
ATOM      6  C   UNL     1      -4.070   1.265 -27.912  1.00  0.00     0.013 A 
ATOM      7  C   UNL     1      -4.905   1.451 -29.110  1.00  0.00     0.028 A 
ATOM      8  C   UNL     1      -4.538   0.816 -30.321  1.00  0.00     0.036 A 
ATOM      9  C   UNL     1      -5.366   0.976 -31.447  1.00  0.00     0.059 A 
ATOM     10  C   UNL     1      -6.517   1.754 -31.364  1.00  0.00     0.120 A 
ATOM     11  C   UNL     1      -6.879   2.381 -30.178  1.00  0.00     0.093 A 
ATOM     12  C   UNL     1      -6.075   2.223 -29.053  1.00  0.00     0.127 A 
ENDROOT
BRANCH  12  13
ATOM     13  O   UNL     1      -6.425   2.824 -27.874  1.00  0.00    -0.507 OA
ATOM     14  H   UNL     1      -6.746   3.723 -28.059  1.00  0.00     0.293 HD
ENDBRANCH  12  13
BRANCH  10  15
ATOM     15  O   UNL     1      -7.335   1.924 -32.443  1.00  0.00    -0.508 OA
ATOM     16  H   UNL     1      -6.862   2.441 -33.118  1.00  0.00     0.293 HD
ENDBRANCH  10  15
TORSDOF 2
ENDMDL
MODEL 5
REMARK VINA RESULT:      -6.3      2.545      5.107
REMARK SMILES O=c1ccccc2c(O)cc(O)cc12
REMARK SMILES IDX 1 1 2 2 3 3 4 4 5 5 6 6 7 7 14 8 13 9 11 10 10 11 8 12 9 13
REMARK SMILES IDX 12 15
REMARK H PARENT 9 14 12 16
ROOT
ATOM      1  O   UNL     1      -3.131  -0.650 -31.469  1.00  0.00    -0.289 OA
ATOM      2  C   UNL     1      -3.346  -0.453 -30.271  1.00  0.00     0.186 A 
ATOM      3  C   UNL     1      -2.231   0.169 -29.476  1.00  0.00     0.052 A 
ATOM      4  C   UNL     1      -2.238   0.573 -28.195  1.00  0.00     0.004 A 
ATOM      5  C   UNL     1      -3.415   0.416 -27.374  1.00  0.00     0.001 A 
ATOM      6  C   UNL     1      -3.920  -0.828 -27.345  1.00  0.00     0.013 A 
ATOM      7  C   UNL     1      -4.989  -1.003 -28.340  1.00  0.00     0.028 A 
ATOM      8  C   UNL     1      -4.699  -0.821 -29.714  1.00  0.00     0.036 A 
ATOM      9  C   UNL     1      -5.724  -1.026 -30.655  1.00  0.00     0.059 A 
ATOM     10  C   UNL     1      -7.000  -1.391 -30.232  1.00  0.00     0.120 A 
ATOM     11  C   UNL     1      -7.289  -1.567 -28.885  1.00  0.00     0.093 A 
ATOM     12  C   UNL     1      -6.282  -1.378 -27.943  1.00  0.00     0.127 A 
ENDROOT
BRANCH  12  13
ATOM     13  O   UNL     1      -6.548  -1.561 -26.613  1.00  0.00    -0.507 OA
ATOM     14  H   UNL     1      -6.040  -0.913 -26.096  1.00  0.00     0.293 HD
ENDBRANCH  12  13
BRANCH  10  15
ATOM     15  O   UNL     1      -8.010  -1.595 -31.127  1.00  0.00    -0.508 OA
ATOM     16  H   UNL     1      -8.862  -1.487 -30.669  1.00  0.00     0.293 HD
ENDBRANCH  10  15
TORSDOF 2
ENDMDL
MODEL 6
REMARK VINA RESULT:      -6.3      7.271      8.290
REMARK SMILES O=c1ccccc2c(O)cc(O)cc12
REMARK SMILES IDX 1 1 2 2 3 3 4 4 5 5 6 6 7 7 14 8 13 9 11 10 10 11 8 12 9 13
REMARK SMILES IDX 12 15
REMARK H PARENT 9 14 12 16
ROOT
ATOM      1  O   UNL     1      -8.872  -2.093 -26.736  1.00  0.00    -0.289 OA
ATOM      2  C   UNL     1      -8.806  -2.737 -27.786  1.00  0.00     0.186 A 
ATOM      3  C   UNL     1      -7.764  -2.305 -28.781  1.00  0.00     0.052 A 
ATOM      4  C   UNL     1      -7.421  -2.885 -29.942  1.00  0.00     0.004 A 
ATOM      5  C   UNL     1      -8.093  -4.076 -30.404  1.00  0.00     0.001 A 
ATOM      6  C   UNL     1      -9.432  -3.987 -30.447  1.00  0.00     0.013 A 
ATOM      7  C   UNL     1     -10.051  -4.507 -29.217  1.00  0.00     0.028 A 
ATOM      8  C   UNL     1      -9.742  -3.905 -27.973  1.00  0.00     0.036 A 
ATOM      9  C   UNL     1     -10.369  -4.392 -26.812  1.00  0.00     0.059 A 
ATOM     10  C   UNL     1     -11.267  -5.453 -26.893  1.00  0.00     0.120 A 
ATOM     11  C   UNL     1     -11.569  -6.048 -28.111  1.00  0.00     0.093 A 
ATOM     12  C   UNL     1     -10.965  -5.570 -29.270  1.00  0.00     0.127 A 
ENDROOT
BRANCH  12  13
ATOM     13  O   UNL     1     -11.263  -6.138 -30.479  1.00  0.00    -0.507 OA
ATOM     14  H   UNL     1     -10.687  -6.908 -30.619  1.00  0.00     0.293 HD
ENDBRANCH  12  13
BRANCH  10  15
ATOM     15  O   UNL     1     -11.886  -5.943 -25.780  1.00  0.00    -0.508 OA
ATOM     16  H   UNL     1     -12.810  -5.640 -25.775  1.00  0.00     0.293 HD
ENDBRANCH  10  15
TORSDOF 2
ENDMDL
MODEL 7
REMARK VINA RESULT:      -6.2      2.684      3.042
REMARK SMILES O=c1ccccc2c(O)cc(O)cc12
REMARK SMILES IDX 1 1 2 2 3 3 4 4 5 5 6 6 7 7 14 8 13 9 11 10 10 11 8 12 9 13
REMARK SMILES IDX 12 15
REMARK H PARENT 9 14 12 16
ROOT
ATOM      1  O   UNL     1      -7.831  -1.680 -31.006  1.00  0.00    -0.289 OA
ATOM      2  C   UNL     1      -6.916  -0.856 -31.078  1.00  0.00     0.186 A 
ATOM      3  C   UNL     1      -7.074   0.245 -32.090  1.00  0.00     0.052 A 
ATOM      4  C   UNL     1      -6.284   1.310 -32.302  1.00  0.00     0.004 A 
ATOM      5  C   UNL     1      -5.085   1.511 -31.525  1.00  0.00     0.001 A 
ATOM      6  C   UNL     1      -4.248   0.461 -31.499  1.00  0.00     0.013 A 
ATOM      7  C   UNL     1      -4.479  -0.389 -30.320  1.00  0.00     0.028 A 
ATOM      8  C   UNL     1      -5.744  -1.000 -30.140  1.00  0.00     0.036 A 
ATOM      9  C   UNL     1      -5.937  -1.837 -29.026  1.00  0.00     0.059 A 
ATOM     10  C   UNL     1      -4.902  -2.047 -28.119  1.00  0.00     0.120 A 
ATOM     11  C   UNL     1      -3.661  -1.446 -28.291  1.00  0.00     0.093 A 
ATOM     12  C   UNL     1      -3.452  -0.624 -29.394  1.00  0.00     0.127 A 
ENDROOT
BRANCH  12  13
ATOM     13  O   UNL     1      -2.230  -0.036 -29.585  1.00  0.00    -0.507 OA
ATOM     14  H   UNL     1      -1.971  -0.137 -30.517  1.00  0.00     0.293 HD
ENDBRANCH  12  13
BRANCH  10  15
ATOM     15  O   UNL     1      -5.067  -2.854 -27.031  1.00  0.00    -0.508 OA
ATOM     16  H   UNL     1      -4.213  -2.943 -26.572  1.00  0.00     0.293 HD
ENDBRANCH  10  15
TORSDOF 2
ENDMDL
MODEL 8
REMARK VINA RESULT:      -6.2      2.812      3.731
REMARK SMILES O=c1ccccc2c(O)cc(O)cc12
REMARK SMILES IDX 1 1 2 2 3 3 4 4 5 5 6 6 7 7 14 8 13 9 11 10 10 11 8 12 9 13
REMARK SMILES IDX 12 15
REMARK H PARENT 9 14 12 16
ROOT
ATOM      1  O   UNL     1      -9.021  -2.120 -31.638  1.00  0.00    -0.289 OA
ATOM      2  C   UNL     1      -8.606  -0.997 -31.938  1.00  0.00     0.186 A 
ATOM      3  C   UNL     1      -9.539  -0.120 -32.726  1.00  0.00     0.052 A 
ATOM      4  C   UNL     1      -9.377   1.163 -33.091  1.00  0.00     0.004 A 
ATOM      5  C   UNL     1      -8.173   1.884 -32.753  1.00  0.00     0.001 A 
ATOM      6  C   UNL     1      -7.032   1.277 -33.114  1.00  0.00     0.013 A 
ATOM      7  C   UNL     1      -6.471   0.475 -32.015  1.00  0.00     0.028 A 
ATOM      8  C   UNL     1      -7.230  -0.592 -31.474  1.00  0.00     0.036 A 
ATOM      9  C   UNL     1      -6.665  -1.369 -30.446  1.00  0.00     0.059 A 
ATOM     10  C   UNL     1      -5.389  -1.082 -29.971  1.00  0.00     0.120 A 
ATOM     11  C   UNL     1      -4.644  -0.034 -30.497  1.00  0.00     0.093 A 
ATOM     12  C   UNL     1      -5.185   0.738 -31.521  1.00  0.00     0.127 A 
ENDROOT
BRANCH  12  13
ATOM     13  O   UNL     1      -4.458   1.765 -32.059  1.00  0.00    -0.507 OA
ATOM     14  H   UNL     1      -4.955   2.152 -32.800  1.00  0.00     0.293 HD
ENDBRANCH  12  13
BRANCH  10  15
ATOM     15  O   UNL     1      -4.822  -1.822 -28.975  1.00  0.00    -0.508 OA
ATOM     16  H   UNL     1      -5.309  -2.659 -28.888  1.00  0.00     0.293 HD
ENDBRANCH  10  15
TORSDOF 2
ENDMDL
MODEL 9
REMARK VINA RESULT:      -6.2      3.330      3.867
REMARK SMILES O=c1ccccc2c(O)cc(O)cc12
REMARK SMILES IDX 1 1 2 2 3 3 4 4 5 5 6 6 7 7 14 8 13 9 11 10 10 11 8 12 9 13
REMARK SMILES IDX 12 15
REMARK H PARENT 9 14 12 16
ROOT
ATOM      1  O   UNL     1      -6.802   0.165 -31.935  1.00  0.00    -0.289 OA
ATOM      2  C   UNL     1      -6.942  -0.798 -31.176  1.00  0.00     0.186 A 
ATOM      3  C   UNL     1      -8.198  -1.609 -31.337  1.00  0.00     0.052 A 
ATOM      4  C   UNL     1      -8.547  -2.747 -30.715  1.00  0.00     0.004 A 
ATOM      5  C   UNL     1      -7.683  -3.347 -29.726  1.00  0.00     0.001 A 
ATOM      6  C   UNL     1      -7.297  -2.522 -28.740  1.00  0.00     0.013 A 
ATOM      7  C   UNL     1      -5.993  -1.903 -29.029  1.00  0.00     0.028 A 
ATOM      8  C   UNL     1      -5.846  -1.095 -30.183  1.00  0.00     0.036 A 
ATOM      9  C   UNL     1      -4.603  -0.483 -30.426  1.00  0.00     0.059 A 
ATOM     10  C   UNL     1      -3.541  -0.683 -29.549  1.00  0.00     0.120 A 
ATOM     11  C   UNL     1      -3.681  -1.478 -28.418  1.00  0.00     0.093 A 
ATOM     12  C   UNL     1      -4.908  -2.081 -28.159  1.00  0.00     0.127 A 
ENDROOT
BRANCH  12  13
ATOM     13  O   UNL     1      -5.065  -2.857 -27.042  1.00  0.00    -0.507 OA
ATOM     14  H   UNL     1      -4.265  -2.790 -26.494  1.00  0.00     0.293 HD
ENDBRANCH  12  13
BRANCH  10  15
ATOM     15  O   UNL     1      -2.326  -0.101 -29.765  1.00  0.00    -0.508 OA
ATOM     16  H   UNL     1      -1.948   0.165 -28.909  1.00  0.00     0.293 HD
ENDBRANCH  10  15
TORSDOF 2
ENDMDL
MODEL 10
REMARK VINA RESULT:      -6.2      1.546      1.669
REMARK SMILES O=c1ccccc2c(O)cc(O)cc12
REMARK SMILES IDX 1 1 2 2 3 3 4 4 5 5 6 6 7 7 14 8 13 9 11 10 10 11 8 12 9 13
REMARK SMILES IDX 12 15
REMARK H PARENT 9 14 12 16
ROOT
ATOM      1  O   UNL     1      -6.080  -0.049 -26.531  1.00  0.00    -0.289 OA
ATOM      2  C   UNL     1      -6.091  -0.125 -27.763  1.00  0.00     0.186 A 
ATOM      3  C   UNL     1      -7.436  -0.270 -28.419  1.00  0.00     0.052 A 
ATOM      4  C   UNL     1      -7.734  -0.275 -29.729  1.00  0.00     0.004 A 
ATOM      5  C   UNL     1      -6.697  -0.153 -30.726  1.00  0.00     0.001 A 
ATOM      6  C   UNL     1      -5.688  -1.030 -30.600  1.00  0.00     0.013 A 
ATOM      7  C   UNL     1      -4.567  -0.461 -29.835  1.00  0.00     0.028 A 
ATOM      8  C   UNL     1      -4.778  -0.040 -28.499  1.00  0.00     0.036 A 
ATOM      9  C   UNL     1      -3.687   0.470 -27.771  1.00  0.00     0.059 A 
ATOM     10  C   UNL     1      -2.431   0.564 -28.364  1.00  0.00     0.120 A 
ATOM     11  C   UNL     1      -2.222   0.155 -29.675  1.00  0.00     0.093 A 
ATOM     12  C   UNL     1      -3.289  -0.362 -30.405  1.00  0.00     0.127 A 
ENDROOT
BRANCH  12  13
ATOM     13  O   UNL     1      -3.095  -0.782 -31.693  1.00  0.00    -0.507 OA
ATOM     14  H   UNL     1      -2.554  -0.125 -32.163  1.00  0.00     0.293 HD
ENDBRANCH  12  13
BRANCH  10  15
ATOM     15  O   UNL     1      -1.360   1.056 -27.678  1.00  0.00    -0.508 OA
ATOM     16  H   UNL     1      -1.678   1.680 -27.003  1.00  0.00     0.293 HD
ENDBRANCH  10  15
TORSDOF 2
ENDMDL
