MODEL 1
REMARK VINA RESULT:      -6.8      0.000      0.000
REMARK SMILES COc1cc(O)c2ccccc(=O)c2c1
REMARK SMILES IDX 13 1 12 2 11 3 10 4 9 5 8 6 7 7 14 8 15 9 3 10 4 11 5 12
REMARK SMILES IDX 6 13 2 15 1 16
REMARK H PARENT 6 14
ROOT
ATOM      1  O   UNL     1     -11.641  -0.615 -32.688  1.00  0.00    -0.289 OA
ATOM      2  C   UNL     1     -10.548  -0.072 -32.504  1.00  0.00     0.186 A 
ATOM      3  C   UNL     1     -10.381   1.312 -33.067  1.00  0.00     0.052 A 
ATOM      4  C   UNL     1      -9.342   2.154 -32.930  1.00  0.00     0.004 A 
ATOM      5  C   UNL     1      -8.170   1.769 -32.183  1.00  0.00     0.001 A 
ATOM      6  C   UNL     1      -7.622   0.601 -32.556  1.00  0.00     0.013 A 
ATOM      7  C   UNL     1      -8.113  -0.516 -31.736  1.00  0.00     0.028 A 
ATOM      8  C   UNL     1      -9.496  -0.817 -31.722  1.00  0.00     0.036 A 
ATOM      9  C   UNL     1      -9.945  -1.911 -30.955  1.00  0.00     0.059 A 
ATOM     10  C   UNL     1      -9.051  -2.685 -30.213  1.00  0.00     0.123 A 
ATOM     11  C   UNL     1      -7.690  -2.375 -30.235  1.00  0.00     0.093 A 
ATOM     12  C   UNL     1      -7.226  -1.304 -30.994  1.00  0.00     0.127 A 
ENDROOT
BRANCH  12  13
ATOM     13  O   UNL     1      -5.888  -1.015 -31.020  1.00  0.00    -0.507 OA
ATOM     14  H   UNL     1      -5.669  -0.449 -30.262  1.00  0.00     0.293 HD
ENDBRANCH  12  13
BRANCH  10  15
ATOM     15  O   UNL     1      -9.376  -3.763 -29.435  1.00  0.00    -0.497 OA
ATOM     16  C   UNL     1     -10.096  -4.818 -30.062  1.00  0.00     0.278 C 
ENDBRANCH  10  15
TORSDOF 2
ENDMDL
MODEL 2
REMARK VINA RESULT:      -6.7      4.100      6.512
REMARK SMILES COc1cc(O)c2ccccc(=O)c2c1
REMARK SMILES IDX 13 1 12 2 11 3 10 4 9 5 8 6 7 7 14 8 15 9 3 10 4 11 5 12
REMARK SMILES IDX 6 13 2 15 1 16
REMARK H PARENT 6 14
ROOT
ATOM      1  O   UNL     1      -3.329  -0.828 -31.497  1.00  0.00    -0.289 OA
ATOM      2  C   UNL     1      -3.351  -0.079 -30.517  1.00  0.00     0.186 A 
ATOM      3  C   UNL     1      -2.145  -0.109 -29.620  1.00  0.00     0.052 A 
ATOM      4  C   UNL     1      -1.872   0.662 -28.554  1.00  0.00     0.004 A 
ATOM      5  C   UNL     1      -2.805   1.671 -28.112  1.00  0.00     0.001 A 
ATOM      6  C   UNL     1      -4.057   1.230 -27.909  1.00  0.00     0.013 A 
ATOM      7  C   UNL     1      -4.903   1.432 -29.095  1.00  0.00     0.028 A 
ATOM      8  C   UNL     1      -4.553   0.810 -30.316  1.00  0.00     0.036 A 
ATOM      9  C   UNL     1      -5.392   0.988 -31.435  1.00  0.00     0.059 A 
ATOM     10  C   UNL     1      -6.545   1.771 -31.351  1.00  0.00     0.123 A 
ATOM     11  C   UNL     1      -6.877   2.380 -30.140  1.00  0.00     0.093 A 
ATOM     12  C   UNL     1      -6.065   2.208 -29.021  1.00  0.00     0.127 A 
ENDROOT
BRANCH  12  13
ATOM     13  O   UNL     1      -6.404   2.799 -27.834  1.00  0.00    -0.507 OA
ATOM     14  H   UNL     1      -7.298   3.172 -27.907  1.00  0.00     0.293 HD
ENDBRANCH  12  13
BRANCH  10  15
ATOM     15  O   UNL     1      -7.426   2.013 -32.369  1.00  0.00    -0.497 OA
ATOM     16  C   UNL     1      -7.497   1.043 -33.407  1.00  0.00     0.278 C 
ENDBRANCH  10  15
TORSDOF 2
ENDMDL
MODEL 3
REMARK VINA RESULT:      -6.6      2.158      3.369
REMARK SMILES COc1cc(O)c2ccccc(=O)c2c1
REMARK SMILES IDX 13 1 12 2 11 3 10 4 9 5 8 6 7 7 14 8 15 9 3 10 4 11 5 12
REMARK SMILES IDX 6 13 2 15 1 16
REMARK H PARENT 6 14
ROOT
ATOM      1  O   UNL     1      -9.055  -2.137 -31.648  1.00  0.00    -0.289 OA
ATOM      2  C   UNL     1      -8.643  -1.018 -31.963  1.00  0.00     0.186 A 
ATOM      3  C   UNL     1      -9.567  -0.167 -32.788  1.00  0.00     0.052 A 
ATOM      4  C   UNL     1      -9.408   1.108 -33.181  1.00  0.00     0.004 A 
ATOM      5  C   UNL     1      -8.215   1.846 -32.838  1.00  0.00     0.001 A 
ATOM      6  C   UNL     1      -7.064   1.237 -33.163  1.00  0.00     0.013 A 
ATOM      7  C   UNL     1      -6.519   0.466 -32.034  1.00  0.00     0.028 A 
ATOM      8  C   UNL     1      -7.279  -0.591 -31.480  1.00  0.00     0.036 A 
ATOM      9  C   UNL     1      -6.729  -1.339 -30.419  1.00  0.00     0.059 A 
ATOM     10  C   UNL     1      -5.461  -1.045 -29.914  1.00  0.00     0.123 A 
ATOM     11  C   UNL     1      -4.724   0.002 -30.470  1.00  0.00     0.093 A 
ATOM     12  C   UNL     1      -5.247   0.747 -31.524  1.00  0.00     0.127 A 
ENDROOT
BRANCH  12  13
ATOM     13  O   UNL     1      -4.513   1.764 -32.071  1.00  0.00    -0.507 OA
ATOM     14  H   UNL     1      -4.028   1.428 -32.843  1.00  0.00     0.293 HD
ENDBRANCH  12  13
BRANCH  10  15
ATOM     15  O   UNL     1      -4.833  -1.701 -28.891  1.00  0.00    -0.497 OA
ATOM     16  C   UNL     1      -3.410  -1.709 -28.905  1.00  0.00     0.278 C 
ENDBRANCH  10  15
TORSDOF 2
ENDMDL
MODEL 4
REMARK VINA RESULT:      -6.5      3.656      5.741
REMARK SMILES COc1cc(O)c2ccccc(=O)c2c1
REMARK SMILES IDX 13 1 12 2 11 3 10 4 9 5 8 6 7 7 14 8 15 9 3 10 4 11 5 12
REMARK SMILES IDX 6 13 2 15 1 16
REMARK H PARENT 6 14
ROOT
ATOM      1  O   UNL     1      -3.138  -0.632 -31.499  1.00  0.00    -0.289 OA
ATOM      2  C   UNL     1      -3.367  -0.452 -30.300  1.00  0.00     0.186 A 
ATOM      3  C   UNL     1      -2.255   0.148 -29.484  1.00  0.00     0.052 A 
ATOM      4  C   UNL     1      -2.272   0.531 -28.197  1.00  0.00     0.004 A 
ATOM      5  C   UNL     1      -3.457   0.368 -27.390  1.00  0.00     0.001 A 
ATOM      6  C   UNL     1      -3.972  -0.872 -27.389  1.00  0.00     0.013 A 
ATOM      7  C   UNL     1      -5.032  -1.022 -28.398  1.00  0.00     0.028 A 
ATOM      8  C   UNL     1      -4.729  -0.817 -29.764  1.00  0.00     0.036 A 
ATOM      9  C   UNL     1      -5.750  -0.995 -30.721  1.00  0.00     0.059 A 
ATOM     10  C   UNL     1      -7.041  -1.358 -30.334  1.00  0.00     0.123 A 
ATOM     11  C   UNL     1      -7.325  -1.556 -28.982  1.00  0.00     0.093 A 
ATOM     12  C   UNL     1      -6.328  -1.393 -28.024  1.00  0.00     0.127 A 
ENDROOT
BRANCH  12  13
ATOM     13  O   UNL     1      -6.612  -1.601 -26.701  1.00  0.00    -0.507 OA
ATOM     14  H   UNL     1      -5.782  -1.654 -26.201  1.00  0.00     0.293 HD
ENDBRANCH  12  13
BRANCH  10  15
ATOM     15  O   UNL     1      -8.104  -1.555 -31.173  1.00  0.00    -0.497 OA
ATOM     16  C   UNL     1      -8.859  -2.748 -30.990  1.00  0.00     0.278 C 
ENDBRANCH  10  15
TORSDOF 2
ENDMDL
MODEL 5
REMARK VINA RESULT:      -6.5      2.840      5.256
REMARK SMILES COc1cc(O)c2ccccc(=O)c2c1
REMARK SMILES IDX 13 1 12 2 11 3 10 4 9 5 8 6 7 7 14 8 15 9 3 10 4 11 5 12
REMARK SMILES IDX 6 13 2 15 1 16
REMARK H PARENT 6 14
ROOT
ATOM      1  O   UNL     1      -7.525  -0.091 -32.068  1.00  0.00    -0.289 OA
ATOM      2  C   UNL     1      -7.511  -1.059 -31.304  1.00  0.00     0.186 A 
ATOM      3  C   UNL     1      -8.646  -2.037 -31.435  1.00  0.00     0.052 A 
ATOM      4  C   UNL     1      -8.821  -3.208 -30.801  1.00  0.00     0.004 A 
ATOM      5  C   UNL     1      -7.864  -3.675 -29.827  1.00  0.00     0.001 A 
ATOM      6  C   UNL     1      -7.576  -2.795 -28.854  1.00  0.00     0.013 A 
ATOM      7  C   UNL     1      -6.377  -2.005 -29.174  1.00  0.00     0.028 A 
ATOM      8  C   UNL     1      -6.364  -1.195 -30.334  1.00  0.00     0.036 A 
ATOM      9  C   UNL     1      -5.218  -0.420 -30.608  1.00  0.00     0.059 A 
ATOM     10  C   UNL     1      -4.110  -0.451 -29.760  1.00  0.00     0.123 A 
ATOM     11  C   UNL     1      -4.137  -1.256 -28.620  1.00  0.00     0.093 A 
ATOM     12  C   UNL     1      -5.263  -2.022 -28.328  1.00  0.00     0.127 A 
ENDROOT
BRANCH  12  13
ATOM     13  O   UNL     1      -5.286  -2.799 -27.202  1.00  0.00    -0.507 OA
ATOM     14  H   UNL     1      -4.837  -3.640 -27.385  1.00  0.00     0.293 HD
ENDBRANCH  12  13
BRANCH  10  15
ATOM     15  O   UNL     1      -2.950   0.255 -29.930  1.00  0.00    -0.497 OA
ATOM     16  C   UNL     1      -2.057   0.306 -28.823  1.00  0.00     0.278 C 
ENDBRANCH  10  15
TORSDOF 2
ENDMDL
MODEL 6
REMARK VINA RESULT:      -6.4      2.676      4.799
REMARK SMILES COc1cc(O)c2ccccc(=O)c2c1
REMARK SMILES IDX 13 1 12 2 11 3 10 4 9 5 8 6 7 7 14 8 15 9 3 10 4 11 5 12
REMARK SMILES IDX 6 13 2 15 1 16
REMARK H PARENT 6 14
ROOT
ATOM      1  O   UNL     1      -5.737  -2.760 -27.542  1.00  0.00    -0.289 OA
ATOM      2  C   UNL     1      -5.261  -2.046 -28.429  1.00  0.00     0.186 A 
ATOM      3  C   UNL     1      -3.810  -1.677 -28.290  1.00  0.00     0.052 A 
ATOM      4  C   UNL     1      -3.031  -0.999 -29.150  1.00  0.00     0.004 A 
ATOM      5  C   UNL     1      -3.563  -0.493 -30.392  1.00  0.00     0.001 A 
ATOM      6  C   UNL     1      -4.671   0.254 -30.267  1.00  0.00     0.013 A 
ATOM      7  C   UNL     1      -5.891  -0.548 -30.447  1.00  0.00     0.028 A 
ATOM      8  C   UNL     1      -6.150  -1.630 -29.574  1.00  0.00     0.036 A 
ATOM      9  C   UNL     1      -7.340  -2.369 -29.742  1.00  0.00     0.059 A 
ATOM     10  C   UNL     1      -8.246  -2.051 -30.754  1.00  0.00     0.123 A 
ATOM     11  C   UNL     1      -7.976  -0.982 -31.610  1.00  0.00     0.093 A 
ATOM     12  C   UNL     1      -6.811  -0.235 -31.454  1.00  0.00     0.127 A 
ENDROOT
BRANCH  12  13
ATOM     13  O   UNL     1      -6.560   0.820 -32.290  1.00  0.00    -0.507 OA
ATOM     14  H   UNL     1      -6.989   0.658 -33.145  1.00  0.00     0.293 HD
ENDBRANCH  12  13
BRANCH  10  15
ATOM     15  O   UNL     1      -9.425  -2.698 -31.009  1.00  0.00    -0.497 OA
ATOM     16  C   UNL     1      -9.611  -3.967 -30.391  1.00  0.00     0.278 C 
ENDBRANCH  10  15
TORSDOF 2
ENDMDL
MODEL 7
REMARK VINA RESULT:      -6.3      2.659      5.053
REMARK SMILES COc1cc(O)c2ccccc(=O)c2c1
REMARK SMILES IDX 13 1 12 2 11 3 10 4 9 5 8 6 7 7 14 8 15 9 3 10 4 11 5 12
REMARK SMILES IDX 6 13 2 15 1 16
REMARK H PARENT 6 14
ROOT
ATOM      1  O   UNL     1      -6.768  -2.754 -28.105  1.00  0.00    -0.289 OA
ATOM      2  C   UNL     1      -5.918  -2.061 -28.672  1.00  0.00     0.186 A 
ATOM      3  C   UNL     1      -4.526  -2.106 -28.105  1.00  0.00     0.052 A 
ATOM      4  C   UNL     1      -3.407  -1.532 -28.580  1.00  0.00     0.004 A 
ATOM      5  C   UNL     1      -3.439  -0.723 -29.774  1.00  0.00     0.001 A 
ATOM      6  C   UNL     1      -4.355   0.259 -29.765  1.00  0.00     0.013 A 
ATOM      7  C   UNL     1      -5.610  -0.163 -30.408  1.00  0.00     0.028 A 
ATOM      8  C   UNL     1      -6.330  -1.260 -29.881  1.00  0.00     0.036 A 
ATOM      9  C   UNL     1      -7.547  -1.630 -30.491  1.00  0.00     0.059 A 
ATOM     10  C   UNL     1      -8.034  -0.938 -31.601  1.00  0.00     0.123 A 
ATOM     11  C   UNL     1      -7.311   0.142 -32.111  1.00  0.00     0.093 A 
ATOM     12  C   UNL     1      -6.112   0.528 -31.516  1.00  0.00     0.127 A 
ENDROOT
BRANCH  12  13
ATOM     13  O   UNL     1      -5.416   1.595 -32.016  1.00  0.00    -0.507 OA
ATOM     14  H   UNL     1      -4.560   1.659 -31.561  1.00  0.00     0.293 HD
ENDBRANCH  12  13
BRANCH  10  15
ATOM     15  O   UNL     1      -9.196  -1.210 -32.270  1.00  0.00    -0.497 OA
ATOM     16  C   UNL     1      -9.502  -0.391 -33.393  1.00  0.00     0.278 C 
ENDBRANCH  10  15
TORSDOF 2
ENDMDL
MODEL 8
REMARK VINA RESULT:      -6.3      4.053      5.718
REMARK SMILES COc1cc(O)c2ccccc(=O)c2c1
REMARK SMILES IDX 13 1 12 2 11 3 10 4 9 5 8 6 7 7 14 8 15 9 3 10 4 11 5 12
REMARK SMILES IDX 6 13 2 15 1 16
REMARK H PARENT 6 14
ROOT
ATOM      1  O   UNL     1      -9.033  -1.877 -26.826  1.00  0.00    -0.289 OA
ATOM      2  C   UNL     1      -8.929  -2.584 -27.831  1.00  0.00     0.186 A 
ATOM      3  C   UNL     1      -7.858  -2.203 -28.815  1.00  0.00     0.052 A 
ATOM      4  C   UNL     1      -7.473  -2.849 -29.929  1.00  0.00     0.004 A 
ATOM      5  C   UNL     1      -8.124  -4.069 -30.341  1.00  0.00     0.001 A 
ATOM      6  C   UNL     1      -9.462  -3.991 -30.431  1.00  0.00     0.013 A 
ATOM      7  C   UNL     1     -10.117  -4.442 -29.193  1.00  0.00     0.028 A 
ATOM      8  C   UNL     1      -9.851  -3.769 -27.978  1.00  0.00     0.036 A 
ATOM      9  C   UNL     1     -10.511  -4.195 -26.807  1.00  0.00     0.059 A 
ATOM     10  C   UNL     1     -11.406  -5.266 -26.836  1.00  0.00     0.123 A 
ATOM     11  C   UNL     1     -11.657  -5.921 -28.042  1.00  0.00     0.093 A 
ATOM     12  C   UNL     1     -11.021  -5.510 -29.211  1.00  0.00     0.127 A 
ENDROOT
BRANCH  12  13
ATOM     13  O   UNL     1     -11.282  -6.150 -30.392  1.00  0.00    -0.507 OA
ATOM     14  H   UNL     1     -12.094  -5.786 -30.779  1.00  0.00     0.293 HD
ENDBRANCH  12  13
BRANCH  10  15
ATOM     15  O   UNL     1     -12.098  -5.762 -25.765  1.00  0.00    -0.497 OA
ATOM     16  C   UNL     1     -13.346  -5.150 -25.461  1.00  0.00     0.278 C 
ENDBRANCH  10  15
TORSDOF 2
ENDMDL
MODEL 9
REMARK VINA RESULT:      -6.3      1.808      3.607
REMARK SMILES COc1cc(O)c2ccccc(=O)c2c1
REMARK SMILES IDX 13 1 12 2 11 3 10 4 9 5 8 6 7 7 14 8 15 9 3 10 4 11 5 12
REMARK SMILES IDX 6 13 2 15 1 16
REMARK H PARENT 6 14
ROOT
ATOM      1  O   UNL     1      -6.504   2.034 -31.516  1.00  0.00    -0.289 OA
ATOM      2  C   UNL     1      -7.282   1.169 -31.927  1.00  0.00     0.186 A 
ATOM      3  C   UNL     1      -8.173   1.556 -33.075  1.00  0.00     0.052 A 
ATOM      4  C   UNL     1      -9.032   0.788 -33.767  1.00  0.00     0.004 A 
ATOM      5  C   UNL     1      -9.218  -0.603 -33.431  1.00  0.00     0.001 A 
ATOM      6  C   UNL     1      -9.506  -0.837 -32.141  1.00  0.00     0.013 A 
ATOM      7  C   UNL     1      -8.297  -1.147 -31.361  1.00  0.00     0.028 A 
ATOM      8  C   UNL     1      -7.259  -0.190 -31.275  1.00  0.00     0.036 A 
ATOM      9  C   UNL     1      -6.121  -0.491 -30.498  1.00  0.00     0.059 A 
ATOM     10  C   UNL     1      -6.010  -1.712 -29.829  1.00  0.00     0.123 A 
ATOM     11  C   UNL     1      -7.042  -2.646 -29.925  1.00  0.00     0.093 A 
ATOM     12  C   UNL     1      -8.177  -2.364 -30.681  1.00  0.00     0.127 A 
ENDROOT
BRANCH  12  13
ATOM     13  O   UNL     1      -9.190  -3.281 -30.760  1.00  0.00    -0.507 OA
ATOM     14  H   UNL     1      -8.856  -4.090 -31.179  1.00  0.00     0.293 HD
ENDBRANCH  12  13
BRANCH  10  15
ATOM     15  O   UNL     1      -4.955  -2.108 -29.053  1.00  0.00    -0.497 OA
ATOM     16  C   UNL     1      -3.657  -1.700 -29.470  1.00  0.00     0.278 C 
ENDBRANCH  10  15
TORSDOF 2
ENDMDL
MODEL 10
REMARK VINA RESULT:      -6.3      4.713      7.113
REMARK SMILES COc1cc(O)c2ccccc(=O)c2c1
REMARK SMILES IDX 13 1 12 2 11 3 10 4 9 5 8 6 7 7 14 8 15 9 3 10 4 11 5 12
REMARK SMILES IDX 6 13 2 15 1 16
REMARK H PARENT 6 14
ROOT
ATOM      1  O   UNL     1      -7.074   0.794 -29.788  1.00  0.00    -0.289 OA
ATOM      2  C   UNL     1      -5.994   0.241 -29.566  1.00  0.00     0.186 A 
ATOM      3  C   UNL     1      -5.941  -1.246 -29.781  1.00  0.00     0.052 A 
ATOM      4  C   UNL     1      -4.881  -2.068 -29.704  1.00  0.00     0.004 A 
ATOM      5  C   UNL     1      -3.576  -1.564 -29.353  1.00  0.00     0.001 A 
ATOM      6  C   UNL     1      -3.536  -0.842 -28.222  1.00  0.00     0.013 A 
ATOM      7  C   UNL     1      -3.663   0.598 -28.491  1.00  0.00     0.028 A 
ATOM      8  C   UNL     1      -4.826   1.090 -29.128  1.00  0.00     0.036 A 
ATOM      9  C   UNL     1      -4.944   2.477 -29.350  1.00  0.00     0.059 A 
ATOM     10  C   UNL     1      -3.933   3.356 -28.960  1.00  0.00     0.123 A 
ATOM     11  C   UNL     1      -2.790   2.857 -28.334  1.00  0.00     0.093 A 
ATOM     12  C   UNL     1      -2.659   1.490 -28.098  1.00  0.00     0.127 A 
ENDROOT
BRANCH  12  13
ATOM     13  O   UNL     1      -1.540   1.010 -27.473  1.00  0.00    -0.507 OA
ATOM     14  H   UNL     1      -1.226   1.668 -26.832  1.00  0.00     0.293 HD
ENDBRANCH  12  13
BRANCH  10  15
ATOM     15  O   UNL     1      -3.941   4.714 -29.127  1.00  0.00    -0.497 OA
ATOM     16  C   UNL     1      -4.582   5.218 -30.294  1.00  0.00     0.278 C 
ENDBRANCH  10  15
TORSDOF 2
ENDMDL
