MODEL 1
REMARK VINA RESULT:      -7.2      0.000      0.000
REMARK SMILES O=C(O)C=CC1C=CC=C1
REMARK SMILES IDX 2 1 1 2 4 3 5 4 6 5 8 6 7 7 9 8 10 9 3 10
REMARK H PARENT 3 11
ROOT
ATOM      1  C   UNL     1       6.242  -2.445 -20.313  1.00  0.00     0.328 C 
ATOM      2  O   UNL     1       6.426  -1.301 -19.936  1.00  0.00    -0.247 OA
ENDROOT
BRANCH   1   3
ATOM      3  C   UNL     1       5.687  -2.820 -21.631  1.00  0.00     0.090 C 
ATOM      4  C   UNL     1       5.194  -1.872 -22.445  1.00  0.00    -0.008 C 
BRANCH   4   5
ATOM      5  C   UNL     1       4.609  -2.149 -23.797  1.00  0.00     0.057 C 
ATOM      6  C   UNL     1       4.285  -0.530 -25.449  1.00  0.00    -0.004 C 
ATOM      7  C   UNL     1       5.229  -1.287 -24.867  1.00  0.00    -0.015 C 
ATOM      8  C   UNL     1       3.008  -0.807 -24.840  1.00  0.00    -0.004 C 
ATOM      9  C   UNL     1       3.163  -1.735 -23.884  1.00  0.00    -0.015 C 
ENDBRANCH   4   5
ENDBRANCH   1   3
BRANCH   1  10
ATOM     10  O   UNL     1       6.527  -3.526 -19.560  1.00  0.00    -0.478 OA
ATOM     11  H   UNL     1       5.852  -4.226 -19.554  1.00  0.00     0.297 HD
ENDBRANCH   1  10
TORSDOF 3
ENDMDL
MODEL 2
REMARK VINA RESULT:      -7.1      3.737      5.129
REMARK SMILES O=C(O)C=CC1C=CC=C1
REMARK SMILES IDX 2 1 1 2 4 3 5 4 6 5 8 6 7 7 9 8 10 9 3 10
REMARK H PARENT 3 11
ROOT
ATOM      1  C   UNL     1       3.527  -1.109 -24.827  1.00  0.00     0.328 C 
ATOM      2  O   UNL     1       3.622  -1.928 -23.930  1.00  0.00    -0.247 OA
ENDROOT
BRANCH   1   3
ATOM      3  C   UNL     1       4.473  -0.980 -25.955  1.00  0.00     0.090 C 
ATOM      4  C   UNL     1       5.494  -0.110 -25.879  1.00  0.00    -0.008 C 
BRANCH   4   5
ATOM      5  C   UNL     1       6.504   0.095 -26.968  1.00  0.00     0.057 C 
ATOM      6  C   UNL     1       6.765   2.082 -28.166  1.00  0.00    -0.004 C 
ATOM      7  C   UNL     1       7.036   1.504 -26.985  1.00  0.00    -0.015 C 
ATOM      8  C   UNL     1       6.053   1.148 -29.002  1.00  0.00    -0.004 C 
ATOM      9  C   UNL     1       5.887  -0.006 -28.339  1.00  0.00    -0.015 C 
ENDBRANCH   4   5
ENDBRANCH   1   3
BRANCH   1  10
ATOM     10  O   UNL     1       2.530  -0.205 -24.899  1.00  0.00    -0.478 OA
ATOM     11  H   UNL     1       2.790   0.689 -25.182  1.00  0.00     0.297 HD
ENDBRANCH   1  10
TORSDOF 3
ENDMDL
MODEL 3
REMARK VINA RESULT:      -7.0      2.568      5.315
REMARK SMILES O=C(O)C=CC1C=CC=C1
REMARK SMILES IDX 2 1 1 2 4 3 5 4 6 5 8 6 7 7 9 8 10 9 3 10
REMARK H PARENT 3 11
ROOT
ATOM      1  C   UNL     1       4.798  -2.206 -23.116  1.00  0.00     0.328 C 
ATOM      2  O   UNL     1       3.861  -2.986 -23.130  1.00  0.00    -0.247 OA
ENDROOT
BRANCH   1   3
ATOM      3  C   UNL     1       5.670  -1.957 -21.949  1.00  0.00     0.090 C 
ATOM      4  C   UNL     1       5.899  -2.939 -21.061  1.00  0.00    -0.008 C 
BRANCH   4   5
ATOM      5  C   UNL     1       6.765  -2.788 -19.847  1.00  0.00     0.057 C 
ATOM      6  C   UNL     1       5.958  -2.367 -17.697  1.00  0.00    -0.004 C 
ATOM      7  C   UNL     1       6.105  -3.339 -18.611  1.00  0.00    -0.015 C 
ATOM      8  C   UNL     1       6.483  -1.132 -18.225  1.00  0.00    -0.004 C 
ATOM      9  C   UNL     1       6.953  -1.343 -19.464  1.00  0.00    -0.015 C 
ENDBRANCH   4   5
ENDBRANCH   1   3
BRANCH   1  10
ATOM     10  O   UNL     1       5.157  -1.463 -24.181  1.00  0.00    -0.478 OA
ATOM     11  H   UNL     1       5.578  -0.610 -23.979  1.00  0.00     0.297 HD
ENDBRANCH   1  10
TORSDOF 3
ENDMDL
MODEL 4
REMARK VINA RESULT:      -6.6     11.885     12.984
REMARK SMILES O=C(O)C=CC1C=CC=C1
REMARK SMILES IDX 2 1 1 2 4 3 5 4 6 5 8 6 7 7 9 8 10 9 3 10
REMARK H PARENT 3 11
ROOT
ATOM      1  C   UNL     1      -5.631 -10.132 -26.607  1.00  0.00     0.328 C 
ATOM      2  O   UNL     1      -6.033 -10.339 -25.476  1.00  0.00    -0.247 OA
ENDROOT
BRANCH   1   3
ATOM      3  C   UNL     1      -4.243 -10.359 -27.063  1.00  0.00     0.090 C 
ATOM      4  C   UNL     1      -3.463  -9.314 -27.386  1.00  0.00    -0.008 C 
BRANCH   4   5
ATOM      5  C   UNL     1      -2.047  -9.439 -27.860  1.00  0.00     0.057 C 
ATOM      6  C   UNL     1      -0.537 -11.044 -27.087  1.00  0.00    -0.004 C 
ATOM      7  C   UNL     1      -1.591 -10.874 -27.901  1.00  0.00    -0.015 C 
ATOM      8  C   UNL     1      -0.214  -9.789 -26.455  1.00  0.00    -0.004 C 
ATOM      9  C   UNL     1      -1.068  -8.845 -26.880  1.00  0.00    -0.015 C 
ENDBRANCH   4   5
ENDBRANCH   1   3
BRANCH   1  10
ATOM     10  O   UNL     1      -6.416  -9.661 -27.596  1.00  0.00    -0.478 OA
ATOM     11  H   UNL     1      -6.798 -10.333 -28.186  1.00  0.00     0.297 HD
ENDBRANCH   1  10
TORSDOF 3
ENDMDL
MODEL 5
REMARK VINA RESULT:      -6.4      2.792      5.033
REMARK SMILES O=C(O)C=CC1C=CC=C1
REMARK SMILES IDX 2 1 1 2 4 3 5 4 6 5 8 6 7 7 9 8 10 9 3 10
REMARK H PARENT 3 11
ROOT
ATOM      1  C   UNL     1       4.334  -1.512 -24.593  1.00  0.00     0.328 C 
ATOM      2  O   UNL     1       5.263  -1.052 -25.232  1.00  0.00    -0.247 OA
ENDROOT
BRANCH   1   3
ATOM      3  C   UNL     1       4.467  -2.211 -23.298  1.00  0.00     0.090 C 
ATOM      4  C   UNL     1       5.409  -1.827 -22.421  1.00  0.00    -0.008 C 
BRANCH   4   5
ATOM      5  C   UNL     1       5.625  -2.471 -21.085  1.00  0.00     0.057 C 
ATOM      6  C   UNL     1       7.198  -1.754 -19.514  1.00  0.00    -0.004 C 
ATOM      7  C   UNL     1       5.990  -1.464 -20.025  1.00  0.00    -0.015 C 
ATOM      8  C   UNL     1       7.722  -2.928 -20.166  1.00  0.00    -0.004 C 
ATOM      9  C   UNL     1       6.839  -3.364 -21.077  1.00  0.00    -0.015 C 
ENDBRANCH   4   5
ENDBRANCH   1   3
BRANCH   1  10
ATOM     10  O   UNL     1       3.050  -1.436 -24.995  1.00  0.00    -0.478 OA
ATOM     11  H   UNL     1       2.393  -1.801 -24.379  1.00  0.00     0.297 HD
ENDBRANCH   1  10
TORSDOF 3
ENDMDL
MODEL 6
REMARK VINA RESULT:      -6.2     10.766     11.663
REMARK SMILES O=C(O)C=CC1C=CC=C1
REMARK SMILES IDX 2 1 1 2 4 3 5 4 6 5 8 6 7 7 9 8 10 9 3 10
REMARK H PARENT 3 11
ROOT
ATOM      1  C   UNL     1       0.573 -11.503 -25.759  1.00  0.00     0.328 C 
ATOM      2  O   UNL     1       0.796 -12.640 -26.136  1.00  0.00    -0.247 OA
ENDROOT
BRANCH   1   3
ATOM      3  C   UNL     1      -0.383 -10.576 -26.401  1.00  0.00     0.090 C 
ATOM      4  C   UNL     1      -1.193 -11.017 -27.377  1.00  0.00    -0.008 C 
BRANCH   4   5
ATOM      5  C   UNL     1      -2.193 -10.158 -28.090  1.00  0.00     0.057 C 
ATOM      6  C   UNL     1      -3.323  -8.364 -27.112  1.00  0.00    -0.004 C 
ATOM      7  C   UNL     1      -2.137  -8.725 -27.627  1.00  0.00    -0.015 C 
ATOM      8  C   UNL     1      -4.234  -9.480 -27.181  1.00  0.00    -0.004 C 
ATOM      9  C   UNL     1      -3.610 -10.528 -27.738  1.00  0.00    -0.015 C 
ENDBRANCH   4   5
ENDBRANCH   1   3
BRANCH   1  10
ATOM     10  O   UNL     1       1.179 -10.945 -24.694  1.00  0.00    -0.478 OA
ATOM     11  H   UNL     1       2.151 -10.986 -24.692  1.00  0.00     0.297 HD
ENDBRANCH   1  10
TORSDOF 3
ENDMDL
MODEL 7
REMARK VINA RESULT:      -6.1     10.454     11.287
REMARK SMILES O=C(O)C=CC1C=CC=C1
REMARK SMILES IDX 2 1 1 2 4 3 5 4 6 5 8 6 7 7 9 8 10 9 3 10
REMARK H PARENT 3 11
ROOT
ATOM      1  C   UNL     1       0.926 -12.163 -24.904  1.00  0.00     0.328 C 
ATOM      2  O   UNL     1       0.755 -13.318 -24.555  1.00  0.00    -0.247 OA
ENDROOT
BRANCH   1   3
ATOM      3  C   UNL     1       0.336 -11.553 -26.114  1.00  0.00     0.090 C 
ATOM      4  C   UNL     1      -0.339 -10.395 -26.020  1.00  0.00    -0.008 C 
BRANCH   4   5
ATOM      5  C   UNL     1      -0.975  -9.697 -27.184  1.00  0.00     0.057 C 
ATOM      6  C   UNL     1      -3.126  -8.788 -27.162  1.00  0.00    -0.004 C 
ATOM      7  C   UNL     1      -1.869  -8.567 -26.745  1.00  0.00    -0.015 C 
ATOM      8  C   UNL     1      -3.177 -10.036 -27.883  1.00  0.00    -0.004 C 
ATOM      9  C   UNL     1      -1.952 -10.584 -27.910  1.00  0.00    -0.015 C 
ENDBRANCH   4   5
ENDBRANCH   1   3
BRANCH   1  10
ATOM     10  O   UNL     1       1.687 -11.289 -24.218  1.00  0.00    -0.478 OA
ATOM     11  H   UNL     1       1.347 -11.029 -23.344  1.00  0.00     0.297 HD
ENDBRANCH   1  10
TORSDOF 3
ENDMDL
MODEL 8
REMARK VINA RESULT:      -5.9      3.508      6.486
REMARK SMILES O=C(O)C=CC1C=CC=C1
REMARK SMILES IDX 2 1 1 2 4 3 5 4 6 5 8 6 7 7 9 8 10 9 3 10
REMARK H PARENT 3 11
ROOT
ATOM      1  C   UNL     1       6.261  -2.374 -20.701  1.00  0.00     0.328 C 
ATOM      2  O   UNL     1       5.543  -2.013 -21.617  1.00  0.00    -0.247 OA
ENDROOT
BRANCH   1   3
ATOM      3  C   UNL     1       6.897  -1.469 -19.721  1.00  0.00     0.090 C 
ATOM      4  C   UNL     1       6.349  -1.305 -18.505  1.00  0.00    -0.008 C 
BRANCH   4   5
ATOM      5  C   UNL     1       6.915  -0.411 -17.444  1.00  0.00     0.057 C 
ATOM      6  C   UNL     1       9.195  -0.186 -16.989  1.00  0.00    -0.004 C 
ATOM      7  C   UNL     1       8.237   0.184 -17.854  1.00  0.00    -0.015 C 
ATOM      8  C   UNL     1       8.618  -1.029 -15.971  1.00  0.00    -0.004 C 
ATOM      9  C   UNL     1       7.306  -1.178 -16.207  1.00  0.00    -0.015 C 
ENDBRANCH   4   5
ENDBRANCH   1   3
BRANCH   1  10
ATOM     10  O   UNL     1       6.566  -3.666 -20.467  1.00  0.00    -0.478 OA
ATOM     11  H   UNL     1       6.683  -4.221 -21.256  1.00  0.00     0.297 HD
ENDBRANCH   1  10
TORSDOF 3
ENDMDL
MODEL 9
REMARK VINA RESULT:      -5.6      1.883      2.729
REMARK SMILES O=C(O)C=CC1C=CC=C1
REMARK SMILES IDX 2 1 1 2 4 3 5 4 6 5 8 6 7 7 9 8 10 9 3 10
REMARK H PARENT 3 11
ROOT
ATOM      1  C   UNL     1       6.574  -1.226 -18.086  1.00  0.00     0.328 C 
ATOM      2  O   UNL     1       6.735  -0.118 -17.605  1.00  0.00    -0.247 OA
ENDROOT
BRANCH   1   3
ATOM      3  C   UNL     1       6.632  -1.534 -19.530  1.00  0.00     0.090 C 
ATOM      4  C   UNL     1       5.929  -2.567 -20.024  1.00  0.00    -0.008 C 
BRANCH   4   5
ATOM      5  C   UNL     1       5.922  -2.962 -21.470  1.00  0.00     0.057 C 
ATOM      6  C   UNL     1       4.867  -1.747 -23.162  1.00  0.00    -0.004 C 
ATOM      7  C   UNL     1       5.959  -1.763 -22.382  1.00  0.00    -0.015 C 
ATOM      8  C   UNL     1       4.038  -2.884 -22.848  1.00  0.00    -0.004 C 
ATOM      9  C   UNL     1       4.620  -3.602 -21.875  1.00  0.00    -0.015 C 
ENDBRANCH   4   5
ENDBRANCH   1   3
BRANCH   1  10
ATOM     10  O   UNL     1       6.318  -2.322 -17.346  1.00  0.00    -0.478 OA
ATOM     11  H   UNL     1       6.994  -2.553 -16.686  1.00  0.00     0.297 HD
ENDBRANCH   1  10
TORSDOF 3
ENDMDL
MODEL 10
REMARK VINA RESULT:      -5.6      2.581      3.697
REMARK SMILES O=C(O)C=CC1C=CC=C1
REMARK SMILES IDX 2 1 1 2 4 3 5 4 6 5 8 6 7 7 9 8 10 9 3 10
REMARK H PARENT 3 11
ROOT
ATOM      1  C   UNL     1       4.687  -2.253 -23.274  1.00  0.00     0.328 C 
ATOM      2  O   UNL     1       5.530  -2.011 -22.428  1.00  0.00    -0.247 OA
ENDROOT
BRANCH   1   3
ATOM      3  C   UNL     1       4.575  -1.560 -24.575  1.00  0.00     0.090 C 
ATOM      4  C   UNL     1       5.259  -0.424 -24.791  1.00  0.00    -0.008 C 
BRANCH   4   5
ATOM      5  C   UNL     1       5.212   0.353 -26.072  1.00  0.00     0.057 C 
ATOM      6  C   UNL     1       5.981  -0.447 -28.126  1.00  0.00    -0.004 C 
ATOM      7  C   UNL     1       4.958  -0.537 -27.261  1.00  0.00    -0.015 C 
ATOM      8  C   UNL     1       6.967   0.469 -27.608  1.00  0.00    -0.004 C 
ATOM      9  C   UNL     1       6.552   0.944 -26.424  1.00  0.00    -0.015 C 
ENDBRANCH   4   5
ENDBRANCH   1   3
BRANCH   1  10
ATOM     10  O   UNL     1       3.738  -3.198 -23.122  1.00  0.00    -0.478 OA
ATOM     11  H   UNL     1       3.850  -3.789 -22.358  1.00  0.00     0.297 HD
ENDBRANCH   1  10
TORSDOF 3
ENDMDL
