MODEL 1
REMARK VINA RESULT:      -5.1      0.000      0.000
REMARK SMILES COc1cc(C)ccc1O
REMARK SMILES IDX 6 1 5 2 4 3 3 4 9 5 8 6 7 7 2 8 1 9 10 10
REMARK H PARENT 10 11
ROOT
ATOM      1  C   UNL     1      -5.300  -1.385 -25.888  1.00  0.00     0.044 C 
ATOM      2  C   UNL     1      -4.370  -0.924 -26.973  1.00  0.00    -0.047 A 
ATOM      3  C   UNL     1      -3.785   0.353 -26.926  1.00  0.00     0.053 A 
ATOM      4  C   UNL     1      -2.920   0.771 -27.940  1.00  0.00     0.160 A 
ATOM      5  C   UNL     1      -2.648  -0.104 -28.997  1.00  0.00     0.157 A 
ATOM      6  C   UNL     1      -3.217  -1.370 -29.060  1.00  0.00     0.050 A 
ATOM      7  C   UNL     1      -4.080  -1.779 -28.046  1.00  0.00     0.007 A 
ENDROOT
BRANCH   4   8
ATOM      8  O   UNL     1      -2.287   1.985 -28.017  1.00  0.00    -0.493 OA
ATOM      9  C   UNL     1      -3.101   3.108 -28.336  1.00  0.00     0.278 C 
ENDBRANCH   4   8
BRANCH   5  10
ATOM     10  O   UNL     1      -1.805   0.277 -30.005  1.00  0.00    -0.504 OA
ATOM     11  H   UNL     1      -1.149  -0.444 -30.066  1.00  0.00     0.293 HD
ENDBRANCH   5  10
TORSDOF 2
ENDMDL
MODEL 2
REMARK VINA RESULT:      -5.1      2.210      3.088
REMARK SMILES COc1cc(C)ccc1O
REMARK SMILES IDX 6 1 5 2 4 3 3 4 9 5 8 6 7 7 2 8 1 9 10 10
REMARK H PARENT 10 11
ROOT
ATOM      1  C   UNL     1      -3.990   0.147 -26.309  1.00  0.00     0.044 C 
ATOM      2  C   UNL     1      -3.725  -0.054 -27.773  1.00  0.00    -0.047 A 
ATOM      3  C   UNL     1      -4.750  -0.468 -28.641  1.00  0.00     0.053 A 
ATOM      4  C   UNL     1      -4.493  -0.650 -30.001  1.00  0.00     0.160 A 
ATOM      5  C   UNL     1      -3.200  -0.411 -30.481  1.00  0.00     0.157 A 
ATOM      6  C   UNL     1      -2.175  -0.000 -29.638  1.00  0.00     0.050 A 
ATOM      7  C   UNL     1      -2.439   0.178 -28.282  1.00  0.00     0.007 A 
ENDROOT
BRANCH   4   8
ATOM      8  O   UNL     1      -5.396  -1.051 -30.952  1.00  0.00    -0.493 OA
ATOM      9  C   UNL     1      -6.550  -0.233 -31.118  1.00  0.00     0.278 C 
ENDBRANCH   4   8
BRANCH   5  10
ATOM     10  O   UNL     1      -2.917  -0.579 -31.809  1.00  0.00    -0.504 OA
ATOM     11  H   UNL     1      -2.795  -1.542 -31.916  1.00  0.00     0.293 HD
ENDBRANCH   5  10
TORSDOF 2
ENDMDL
MODEL 3
REMARK VINA RESULT:      -5.1      9.387     10.829
REMARK SMILES COc1cc(C)ccc1O
REMARK SMILES IDX 6 1 5 2 4 3 3 4 9 5 8 6 7 7 2 8 1 9 10 10
REMARK H PARENT 10 11
ROOT
ATOM      1  C   UNL     1       0.758 -11.736 -25.461  1.00  0.00     0.044 C 
ATOM      2  C   UNL     1      -0.119 -10.802 -26.243  1.00  0.00    -0.047 A 
ATOM      3  C   UNL     1      -1.389 -11.207 -26.689  1.00  0.00     0.053 A 
ATOM      4  C   UNL     1      -2.196 -10.328 -27.413  1.00  0.00     0.160 A 
ATOM      5  C   UNL     1      -1.719  -9.041 -27.685  1.00  0.00     0.157 A 
ATOM      6  C   UNL     1      -0.467  -8.623 -27.252  1.00  0.00     0.050 A 
ATOM      7  C   UNL     1       0.334  -9.505 -26.531  1.00  0.00     0.007 A 
ENDROOT
BRANCH   4   8
ATOM      8  O   UNL     1      -3.449 -10.595 -27.907  1.00  0.00    -0.493 OA
ATOM      9  C   UNL     1      -4.533 -10.459 -26.995  1.00  0.00     0.278 C 
ENDBRANCH   4   8
BRANCH   5  10
ATOM     10  O   UNL     1      -2.487  -8.157 -28.393  1.00  0.00    -0.504 OA
ATOM     11  H   UNL     1      -1.932  -7.359 -28.477  1.00  0.00     0.293 HD
ENDBRANCH   5  10
TORSDOF 2
ENDMDL
MODEL 4
REMARK VINA RESULT:      -5.0      7.415      8.016
REMARK SMILES COc1cc(C)ccc1O
REMARK SMILES IDX 6 1 5 2 4 3 3 4 9 5 8 6 7 7 2 8 1 9 10 10
REMARK H PARENT 10 11
ROOT
ATOM      1  C   UNL     1      -6.378   1.307 -32.447  1.00  0.00     0.044 C 
ATOM      2  C   UNL     1      -7.794   0.814 -32.487  1.00  0.00    -0.047 A 
ATOM      3  C   UNL     1      -8.522   0.612 -31.301  1.00  0.00     0.053 A 
ATOM      4  C   UNL     1      -9.840   0.154 -31.351  1.00  0.00     0.160 A 
ATOM      5  C   UNL     1     -10.421  -0.097 -32.599  1.00  0.00     0.157 A 
ATOM      6  C   UNL     1      -9.717   0.097 -33.781  1.00  0.00     0.050 A 
ATOM      7  C   UNL     1      -8.402   0.553 -33.724  1.00  0.00     0.007 A 
ENDROOT
BRANCH   4   8
ATOM      8  O   UNL     1     -10.657  -0.086 -30.275  1.00  0.00    -0.493 OA
ATOM      9  C   UNL     1     -10.036  -0.618 -29.111  1.00  0.00     0.278 C 
ENDBRANCH   4   8
BRANCH   5  10
ATOM     10  O   UNL     1     -11.711  -0.546 -32.680  1.00  0.00    -0.504 OA
ATOM     11  H   UNL     1     -11.630  -1.490 -32.917  1.00  0.00     0.293 HD
ENDBRANCH   5  10
TORSDOF 2
ENDMDL
MODEL 5
REMARK VINA RESULT:      -4.8      2.632      3.735
REMARK SMILES COc1cc(C)ccc1O
REMARK SMILES IDX 6 1 5 2 4 3 3 4 9 5 8 6 7 7 2 8 1 9 10 10
REMARK H PARENT 10 11
ROOT
ATOM      1  C   UNL     1      -3.106   3.161 -28.307  1.00  0.00     0.044 C 
ATOM      2  C   UNL     1      -3.244   1.794 -28.912  1.00  0.00    -0.047 A 
ATOM      3  C   UNL     1      -4.176   1.549 -29.935  1.00  0.00     0.053 A 
ATOM      4  C   UNL     1      -4.294   0.274 -30.492  1.00  0.00     0.160 A 
ATOM      5  C   UNL     1      -3.469  -0.750 -30.014  1.00  0.00     0.157 A 
ATOM      6  C   UNL     1      -2.542  -0.527 -29.003  1.00  0.00     0.050 A 
ATOM      7  C   UNL     1      -2.431   0.748 -28.452  1.00  0.00     0.007 A 
ENDROOT
BRANCH   4   8
ATOM      8  O   UNL     1      -5.159  -0.100 -31.489  1.00  0.00    -0.493 OA
ATOM      9  C   UNL     1      -6.532  -0.215 -31.130  1.00  0.00     0.278 C 
ENDBRANCH   4   8
BRANCH   5  10
ATOM     10  O   UNL     1      -3.561  -2.011 -30.539  1.00  0.00    -0.504 OA
ATOM     11  H   UNL     1      -3.823  -1.873 -31.470  1.00  0.00     0.293 HD
ENDBRANCH   5  10
TORSDOF 2
ENDMDL
MODEL 6
REMARK VINA RESULT:      -4.8     13.820     14.324
REMARK SMILES COc1cc(C)ccc1O
REMARK SMILES IDX 6 1 5 2 4 3 3 4 9 5 8 6 7 7 2 8 1 9 10 10
REMARK H PARENT 10 11
ROOT
ATOM      1  C   UNL     1       6.336  -2.476 -21.377  1.00  0.00     0.044 C 
ATOM      2  C   UNL     1       6.346  -2.230 -19.897  1.00  0.00    -0.047 A 
ATOM      3  C   UNL     1       6.727  -0.982 -19.375  1.00  0.00     0.053 A 
ATOM      4  C   UNL     1       6.731  -0.763 -17.996  1.00  0.00     0.160 A 
ATOM      5  C   UNL     1       6.347  -1.807 -17.147  1.00  0.00     0.157 A 
ATOM      6  C   UNL     1       5.967  -3.048 -17.644  1.00  0.00     0.050 A 
ATOM      7  C   UNL     1       5.967  -3.258 -19.021  1.00  0.00     0.007 A 
ENDROOT
BRANCH   4   8
ATOM      8  O   UNL     1       7.081   0.400 -17.359  1.00  0.00    -0.493 OA
ATOM      9  C   UNL     1       8.473   0.679 -17.265  1.00  0.00     0.278 C 
ENDBRANCH   4   8
BRANCH   5  10
ATOM     10  O   UNL     1       6.340  -1.625 -15.791  1.00  0.00    -0.504 OA
ATOM     11  H   UNL     1       5.638  -0.965 -15.633  1.00  0.00     0.293 HD
ENDBRANCH   5  10
TORSDOF 2
ENDMDL
MODEL 7
REMARK VINA RESULT:      -4.7      1.801      1.877
REMARK SMILES COc1cc(C)ccc1O
REMARK SMILES IDX 6 1 5 2 4 3 3 4 9 5 8 6 7 7 2 8 1 9 10 10
REMARK H PARENT 10 11
ROOT
ATOM      1  C   UNL     1      -4.772  -0.878 -26.313  1.00  0.00     0.044 C 
ATOM      2  C   UNL     1      -4.375  -0.766 -27.756  1.00  0.00    -0.047 A 
ATOM      3  C   UNL     1      -4.566   0.432 -28.466  1.00  0.00     0.053 A 
ATOM      4  C   UNL     1      -4.191   0.525 -29.808  1.00  0.00     0.160 A 
ATOM      5  C   UNL     1      -3.622  -0.592 -30.428  1.00  0.00     0.157 A 
ATOM      6  C   UNL     1      -3.424  -1.784 -29.742  1.00  0.00     0.050 A 
ATOM      7  C   UNL     1      -3.802  -1.870 -28.404  1.00  0.00     0.007 A 
ENDROOT
BRANCH   4   8
ATOM      8  O   UNL     1      -4.324   1.628 -30.613  1.00  0.00    -0.493 OA
ATOM      9  C   UNL     1      -4.569   2.868 -29.959  1.00  0.00     0.278 C 
ENDBRANCH   4   8
BRANCH   5  10
ATOM     10  O   UNL     1      -3.244  -0.532 -31.742  1.00  0.00    -0.504 OA
ATOM     11  H   UNL     1      -3.362   0.404 -31.991  1.00  0.00     0.293 HD
ENDBRANCH   5  10
TORSDOF 2
ENDMDL
MODEL 8
REMARK VINA RESULT:      -4.7     14.024     15.237
REMARK SMILES COc1cc(C)ccc1O
REMARK SMILES IDX 6 1 5 2 4 3 3 4 9 5 8 6 7 7 2 8 1 9 10 10
REMARK H PARENT 10 11
ROOT
ATOM      1  C   UNL     1       9.392  11.021 -33.392  1.00  0.00     0.044 C 
ATOM      2  C   UNL     1       8.266  10.074 -33.690  1.00  0.00    -0.047 A 
ATOM      3  C   UNL     1       6.928  10.467 -33.515  1.00  0.00     0.053 A 
ATOM      4  C   UNL     1       5.889   9.579 -33.796  1.00  0.00     0.160 A 
ATOM      5  C   UNL     1       6.204   8.295 -34.256  1.00  0.00     0.157 A 
ATOM      6  C   UNL     1       7.521   7.889 -34.436  1.00  0.00     0.050 A 
ATOM      7  C   UNL     1       8.552   8.781 -34.151  1.00  0.00     0.007 A 
ENDROOT
BRANCH   4   8
ATOM      8  O   UNL     1       4.546   9.832 -33.668  1.00  0.00    -0.493 OA
ATOM      9  C   UNL     1       4.174  11.187 -33.443  1.00  0.00     0.278 C 
ENDBRANCH   4   8
BRANCH   5  10
ATOM     10  O   UNL     1       5.207   7.402 -34.541  1.00  0.00    -0.504 OA
ATOM     11  H   UNL     1       5.291   6.711 -33.857  1.00  0.00     0.293 HD
ENDBRANCH   5  10
TORSDOF 2
ENDMDL
MODEL 9
REMARK VINA RESULT:      -4.6      5.866      6.743
REMARK SMILES COc1cc(C)ccc1O
REMARK SMILES IDX 6 1 5 2 4 3 3 4 9 5 8 6 7 7 2 8 1 9 10 10
REMARK H PARENT 10 11
ROOT
ATOM      1  C   UNL     1     -10.175   0.072 -33.767  1.00  0.00     0.044 C 
ATOM      2  C   UNL     1      -8.903   0.039 -32.970  1.00  0.00    -0.047 A 
ATOM      3  C   UNL     1      -8.681  -0.960 -32.007  1.00  0.00     0.053 A 
ATOM      4  C   UNL     1      -7.493  -0.981 -31.273  1.00  0.00     0.160 A 
ATOM      5  C   UNL     1      -6.532   0.006 -31.516  1.00  0.00     0.157 A 
ATOM      6  C   UNL     1      -6.734   1.001 -32.465  1.00  0.00     0.050 A 
ATOM      7  C   UNL     1      -7.922   1.016 -33.192  1.00  0.00     0.007 A 
ENDROOT
BRANCH   4   8
ATOM      8  O   UNL     1      -7.152  -1.893 -30.307  1.00  0.00    -0.493 OA
ATOM      9  C   UNL     1      -7.948  -3.071 -30.235  1.00  0.00     0.278 C 
ENDBRANCH   4   8
BRANCH   5  10
ATOM     10  O   UNL     1      -5.358   0.012 -30.814  1.00  0.00    -0.504 OA
ATOM     11  H   UNL     1      -5.620   0.201 -29.893  1.00  0.00     0.293 HD
ENDBRANCH   5  10
TORSDOF 2
ENDMDL
MODEL 10
REMARK VINA RESULT:      -4.6      1.969      2.393
REMARK SMILES COc1cc(C)ccc1O
REMARK SMILES IDX 6 1 5 2 4 3 3 4 9 5 8 6 7 7 2 8 1 9 10 10
REMARK H PARENT 10 11
ROOT
ATOM      1  C   UNL     1      -6.084  -0.669 -30.728  1.00  0.00     0.044 C 
ATOM      2  C   UNL     1      -4.882  -0.233 -29.943  1.00  0.00    -0.047 A 
ATOM      3  C   UNL     1      -4.725   1.107 -29.547  1.00  0.00     0.053 A 
ATOM      4  C   UNL     1      -3.603   1.501 -28.815  1.00  0.00     0.160 A 
ATOM      5  C   UNL     1      -2.643   0.539 -28.483  1.00  0.00     0.157 A 
ATOM      6  C   UNL     1      -2.781  -0.790 -28.865  1.00  0.00     0.050 A 
ATOM      7  C   UNL     1      -3.902  -1.175 -29.596  1.00  0.00     0.007 A 
ENDROOT
BRANCH   4   8
ATOM      8  O   UNL     1      -3.328   2.769 -28.370  1.00  0.00    -0.493 OA
ATOM      9  C   UNL     1      -3.789   3.842 -29.184  1.00  0.00     0.278 C 
ENDBRANCH   4   8
BRANCH   5  10
ATOM     10  O   UNL     1      -1.532   0.894 -27.766  1.00  0.00    -0.504 OA
ATOM     11  H   UNL     1      -0.920   1.269 -28.427  1.00  0.00     0.293 HD
ENDBRANCH   5  10
TORSDOF 2
ENDMDL
