MODEL 1
REMARK VINA RESULT:      -6.2      0.000      0.000
REMARK SMILES COc1ccc(OC)c(C=CC(=O)O)c1
REMARK SMILES IDX 10 1 11 2 9 3 3 4 15 5 4 6 5 7 6 8 2 9 1 10 7 11 8 12 12 13
REMARK SMILES IDX 13 14 14 15
REMARK H PARENT 14 16
ROOT
ATOM      1  C   UNL     1      -8.682  -0.704 -32.202  1.00  0.00     0.019 C 
ATOM      2  C   UNL     1      -9.397   0.426 -32.102  1.00  0.00     0.094 C 
ENDROOT
BRANCH   1   3
ATOM      3  C   UNL     1      -7.580  -1.042 -31.287  1.00  0.00     0.020 A 
ATOM      4  C   UNL     1      -5.332  -0.516 -30.503  1.00  0.00     0.119 A 
ATOM      5  C   UNL     1      -6.419  -0.250 -31.342  1.00  0.00     0.058 A 
ATOM      6  C   UNL     1      -5.405  -1.578 -29.599  1.00  0.00     0.050 A 
ATOM      7  C   UNL     1      -6.554  -2.363 -29.520  1.00  0.00     0.051 A 
ATOM      8  C   UNL     1      -7.644  -2.079 -30.342  1.00  0.00     0.126 A 
BRANCH   4   9
ATOM      9  O   UNL     1      -4.153   0.177 -30.472  1.00  0.00    -0.497 OA
ATOM     10  C   UNL     1      -3.030  -0.431 -31.099  1.00  0.00     0.278 C 
ENDBRANCH   4   9
BRANCH   8  11
ATOM     11  O   UNL     1      -8.760  -2.873 -30.243  1.00  0.00    -0.496 OA
ATOM     12  C   UNL     1      -8.385  -4.251 -30.306  1.00  0.00     0.278 C 
ENDBRANCH   8  11
ENDBRANCH   1   3
BRANCH   2  13
ATOM     13  C   UNL     1     -10.494   0.679 -33.053  1.00  0.00     0.328 C 
ATOM     14  O   UNL     1     -10.929  -0.142 -33.844  1.00  0.00    -0.247 OA
BRANCH  13  15
ATOM     15  O   UNL     1     -10.968   1.936 -32.955  1.00  0.00    -0.478 OA
ATOM     16  H   UNL     1     -10.651   2.438 -32.183  1.00  0.00     0.297 HD
ENDBRANCH  13  15
ENDBRANCH   2  13
TORSDOF 5
ENDMDL
MODEL 2
REMARK VINA RESULT:      -6.1      1.225      3.516
REMARK SMILES COc1ccc(OC)c(C=CC(=O)O)c1
REMARK SMILES IDX 10 1 11 2 9 3 3 4 15 5 4 6 5 7 6 8 2 9 1 10 7 11 8 12 12 13
REMARK SMILES IDX 13 14 14 15
REMARK H PARENT 14 16
ROOT
ATOM      1  C   UNL     1      -8.896  -0.957 -32.095  1.00  0.00     0.019 C 
ATOM      2  C   UNL     1      -9.682   0.120 -31.949  1.00  0.00     0.094 C 
ENDROOT
BRANCH   1   3
ATOM      3  C   UNL     1      -8.042  -1.481 -31.016  1.00  0.00     0.020 A 
ATOM      4  C   UNL     1      -7.840  -2.989 -29.111  1.00  0.00     0.119 A 
ATOM      5  C   UNL     1      -8.594  -2.449 -30.158  1.00  0.00     0.058 A 
ATOM      6  C   UNL     1      -6.524  -2.562 -28.921  1.00  0.00     0.050 A 
ATOM      7  C   UNL     1      -5.955  -1.616 -29.772  1.00  0.00     0.051 A 
ATOM      8  C   UNL     1      -6.704  -1.099 -30.829  1.00  0.00     0.126 A 
BRANCH   4   9
ATOM      9  O   UNL     1      -8.269  -3.925 -28.210  1.00  0.00    -0.497 OA
ATOM     10  C   UNL     1      -9.419  -4.684 -28.566  1.00  0.00     0.278 C 
ENDBRANCH   4   9
BRANCH   8  11
ATOM     11  O   UNL     1      -6.117  -0.165 -31.648  1.00  0.00    -0.496 OA
ATOM     12  C   UNL     1      -4.816   0.166 -31.156  1.00  0.00     0.278 C 
ENDBRANCH   8  11
ENDBRANCH   1   3
BRANCH   2  13
ATOM     13  C   UNL     1     -10.516   0.568 -33.079  1.00  0.00     0.328 C 
ATOM     14  O   UNL     1     -10.798  -0.117 -34.047  1.00  0.00    -0.247 OA
BRANCH  13  15
ATOM     15  O   UNL     1     -10.936   1.839 -32.923  1.00  0.00    -0.478 OA
ATOM     16  H   UNL     1     -11.786   1.939 -32.459  1.00  0.00     0.297 HD
ENDBRANCH  13  15
ENDBRANCH   2  13
TORSDOF 5
ENDMDL
MODEL 3
REMARK VINA RESULT:      -6.0      2.177      2.659
REMARK SMILES COc1ccc(OC)c(C=CC(=O)O)c1
REMARK SMILES IDX 10 1 11 2 9 3 3 4 15 5 4 6 5 7 6 8 2 9 1 10 7 11 8 12 12 13
REMARK SMILES IDX 13 14 14 15
REMARK H PARENT 14 16
ROOT
ATOM      1  C   UNL     1      -8.474   1.099 -31.695  1.00  0.00     0.019 C 
ATOM      2  C   UNL     1      -8.843   0.914 -32.971  1.00  0.00     0.094 C 
ENDROOT
BRANCH   1   3
ATOM      3  C   UNL     1      -7.068   1.166 -31.266  1.00  0.00     0.020 A 
ATOM      4  C   UNL     1      -5.181   2.577 -30.637  1.00  0.00     0.119 A 
ATOM      5  C   UNL     1      -6.512   2.439 -31.045  1.00  0.00     0.058 A 
ATOM      6  C   UNL     1      -4.399   1.437 -30.445  1.00  0.00     0.050 A 
ATOM      7  C   UNL     1      -4.939   0.166 -30.643  1.00  0.00     0.051 A 
ATOM      8  C   UNL     1      -6.273   0.033 -31.026  1.00  0.00     0.126 A 
BRANCH   4   9
ATOM      9  O   UNL     1      -4.531   3.758 -30.401  1.00  0.00    -0.497 OA
ATOM     10  C   UNL     1      -3.750   3.840 -29.215  1.00  0.00     0.278 C 
ENDBRANCH   4   9
BRANCH   8  11
ATOM     11  O   UNL     1      -6.774  -1.231 -31.216  1.00  0.00    -0.496 OA
ATOM     12  C   UNL     1      -6.675  -1.982 -30.004  1.00  0.00     0.278 C 
ENDBRANCH   8  11
ENDBRANCH   1   3
BRANCH   2  13
ATOM     13  C   UNL     1     -10.275   0.873 -33.314  1.00  0.00     0.328 C 
ATOM     14  O   UNL     1     -10.845  -0.089 -33.803  1.00  0.00    -0.247 OA
BRANCH  13  15
ATOM     15  O   UNL     1     -10.897   2.034 -33.027  1.00  0.00    -0.478 OA
ATOM     16  H   UNL     1     -10.322   2.820 -33.023  1.00  0.00     0.297 HD
ENDBRANCH  13  15
ENDBRANCH   2  13
TORSDOF 5
ENDMDL
MODEL 4
REMARK VINA RESULT:      -5.8      1.450      4.304
REMARK SMILES COc1ccc(OC)c(C=CC(=O)O)c1
REMARK SMILES IDX 10 1 11 2 9 3 3 4 15 5 4 6 5 7 6 8 2 9 1 10 7 11 8 12 12 13
REMARK SMILES IDX 13 14 14 15
REMARK H PARENT 14 16
ROOT
ATOM      1  C   UNL     1      -8.468  -2.346 -30.848  1.00  0.00     0.019 C 
ATOM      2  C   UNL     1      -7.820  -3.194 -30.035  1.00  0.00     0.094 C 
ENDROOT
BRANCH   1   3
ATOM      3  C   UNL     1      -7.840  -1.145 -31.421  1.00  0.00     0.020 A 
ATOM      4  C   UNL     1      -5.925   0.365 -31.425  1.00  0.00     0.119 A 
ATOM      5  C   UNL     1      -6.579  -0.767 -30.927  1.00  0.00     0.058 A 
ATOM      6  C   UNL     1      -6.533   1.124 -32.428  1.00  0.00     0.050 A 
ATOM      7  C   UNL     1      -7.775   0.754 -32.942  1.00  0.00     0.051 A 
ATOM      8  C   UNL     1      -8.411  -0.389 -32.458  1.00  0.00     0.126 A 
BRANCH   4   9
ATOM      9  O   UNL     1      -4.706   0.834 -31.017  1.00  0.00    -0.497 OA
ATOM     10  C   UNL     1      -3.586  -0.021 -31.215  1.00  0.00     0.278 C 
ENDBRANCH   4   9
BRANCH   8  11
ATOM     11  O   UNL     1      -9.636  -0.724 -32.982  1.00  0.00    -0.496 OA
ATOM     12  C   UNL     1     -10.332   0.456 -33.387  1.00  0.00     0.278 C 
ENDBRANCH   8  11
ENDBRANCH   1   3
BRANCH   2  13
ATOM     13  C   UNL     1      -8.522  -4.381 -29.516  1.00  0.00     0.328 C 
ATOM     14  O   UNL     1      -8.979  -5.275 -30.208  1.00  0.00    -0.247 OA
BRANCH  13  15
ATOM     15  O   UNL     1      -8.609  -4.369 -28.171  1.00  0.00    -0.478 OA
ATOM     16  H   UNL     1      -8.881  -5.212 -27.766  1.00  0.00     0.297 HD
ENDBRANCH  13  15
ENDBRANCH   2  13
TORSDOF 5
ENDMDL
MODEL 5
REMARK VINA RESULT:      -5.7      1.574      5.089
REMARK SMILES COc1ccc(OC)c(C=CC(=O)O)c1
REMARK SMILES IDX 10 1 11 2 9 3 3 4 15 5 4 6 5 7 6 8 2 9 1 10 7 11 8 12 12 13
REMARK SMILES IDX 13 14 14 15
REMARK H PARENT 14 16
ROOT
ATOM      1  C   UNL     1      -7.812  -2.518 -30.169  1.00  0.00     0.019 C 
ATOM      2  C   UNL     1      -8.519  -3.579 -30.585  1.00  0.00     0.094 C 
ENDROOT
BRANCH   1   3
ATOM      3  C   UNL     1      -7.549  -1.344 -31.018  1.00  0.00     0.020 A 
ATOM      4  C   UNL     1      -8.359   0.136 -32.778  1.00  0.00     0.119 A 
ATOM      5  C   UNL     1      -8.542  -0.968 -31.939  1.00  0.00     0.058 A 
ATOM      6  C   UNL     1      -7.176   0.872 -32.696  1.00  0.00     0.050 A 
ATOM      7  C   UNL     1      -6.187   0.524 -31.777  1.00  0.00     0.051 A 
ATOM      8  C   UNL     1      -6.385  -0.563 -30.926  1.00  0.00     0.126 A 
BRANCH   4   9
ATOM      9  O   UNL     1      -9.247   0.590 -33.715  1.00  0.00    -0.497 OA
ATOM     10  C   UNL     1     -10.154   1.607 -33.307  1.00  0.00     0.278 C 
ENDBRANCH   4   9
BRANCH   8  11
ATOM     11  O   UNL     1      -5.391  -0.883 -30.035  1.00  0.00    -0.496 OA
ATOM     12  C   UNL     1      -5.173   0.206 -29.135  1.00  0.00     0.278 C 
ENDBRANCH   8  11
ENDBRANCH   1   3
BRANCH   2  13
ATOM     13  C   UNL     1      -8.746  -4.706 -29.663  1.00  0.00     0.328 C 
ATOM     14  O   UNL     1      -9.217  -5.783 -29.987  1.00  0.00    -0.247 OA
BRANCH  13  15
ATOM     15  O   UNL     1      -8.372  -4.411 -28.402  1.00  0.00    -0.478 OA
ATOM     16  H   UNL     1      -8.616  -3.518 -28.098  1.00  0.00     0.297 HD
ENDBRANCH  13  15
ENDBRANCH   2  13
TORSDOF 5
ENDMDL
MODEL 6
REMARK VINA RESULT:      -5.7      3.087      4.957
REMARK SMILES COc1ccc(OC)c(C=CC(=O)O)c1
REMARK SMILES IDX 10 1 11 2 9 3 3 4 15 5 4 6 5 7 6 8 2 9 1 10 7 11 8 12 12 13
REMARK SMILES IDX 13 14 14 15
REMARK H PARENT 14 16
ROOT
ATOM      1  C   UNL     1      -6.379  -2.515 -29.889  1.00  0.00     0.019 C 
ATOM      2  C   UNL     1      -7.471  -3.151 -29.439  1.00  0.00     0.094 C 
ENDROOT
BRANCH   1   3
ATOM      3  C   UNL     1      -5.439  -1.808 -29.004  1.00  0.00     0.020 A 
ATOM      4  C   UNL     1      -4.988  -0.929 -26.775  1.00  0.00     0.119 A 
ATOM      5  C   UNL     1      -5.831  -1.596 -27.670  1.00  0.00     0.058 A 
ATOM      6  C   UNL     1      -3.743  -0.474 -27.212  1.00  0.00     0.050 A 
ATOM      7  C   UNL     1      -3.331  -0.690 -28.526  1.00  0.00     0.051 A 
ATOM      8  C   UNL     1      -4.165  -1.376 -29.409  1.00  0.00     0.126 A 
BRANCH   4   9
ATOM      9  O   UNL     1      -5.263  -0.658 -25.462  1.00  0.00    -0.497 OA
ATOM     10  C   UNL     1      -6.612  -0.815 -25.039  1.00  0.00     0.278 C 
ENDBRANCH   4   9
BRANCH   8  11
ATOM     11  O   UNL     1      -3.732  -1.570 -30.698  1.00  0.00    -0.496 OA
ATOM     12  C   UNL     1      -3.069  -0.396 -31.171  1.00  0.00     0.278 C 
ENDBRANCH   8  11
ENDBRANCH   1   3
BRANCH   2  13
ATOM     13  C   UNL     1      -8.351  -3.846 -30.395  1.00  0.00     0.328 C 
ATOM     14  O   UNL     1      -8.729  -4.999 -30.278  1.00  0.00    -0.247 OA
BRANCH  13  15
ATOM     15  O   UNL     1      -8.696  -3.055 -31.431  1.00  0.00    -0.478 OA
ATOM     16  H   UNL     1      -8.741  -3.502 -32.295  1.00  0.00     0.297 HD
ENDBRANCH  13  15
ENDBRANCH   2  13
TORSDOF 5
ENDMDL
MODEL 7
REMARK VINA RESULT:      -5.7      2.068      4.603
REMARK SMILES COc1ccc(OC)c(C=CC(=O)O)c1
REMARK SMILES IDX 10 1 11 2 9 3 3 4 15 5 4 6 5 7 6 8 2 9 1 10 7 11 8 12 12 13
REMARK SMILES IDX 13 14 14 15
REMARK H PARENT 14 16
ROOT
ATOM      1  C   UNL     1      -9.275  -3.755 -30.077  1.00  0.00     0.019 C 
ATOM      2  C   UNL     1      -9.013  -4.942 -29.509  1.00  0.00     0.094 C 
ENDROOT
BRANCH   1   3
ATOM      3  C   UNL     1      -8.241  -2.738 -30.326  1.00  0.00     0.020 A 
ATOM      4  C   UNL     1      -6.013  -1.904 -29.790  1.00  0.00     0.119 A 
ATOM      5  C   UNL     1      -7.039  -2.838 -29.604  1.00  0.00     0.058 A 
ATOM      6  C   UNL     1      -6.188  -0.864 -30.705  1.00  0.00     0.050 A 
ATOM      7  C   UNL     1      -7.367  -0.760 -31.442  1.00  0.00     0.051 A 
ATOM      8  C   UNL     1      -8.376  -1.707 -31.270  1.00  0.00     0.126 A 
BRANCH   4   9
ATOM      9  O   UNL     1      -4.808  -1.894 -29.141  1.00  0.00    -0.497 OA
ATOM     10  C   UNL     1      -3.686  -1.411 -29.870  1.00  0.00     0.278 C 
ENDBRANCH   4   9
BRANCH   8  11
ATOM     11  O   UNL     1      -9.528  -1.574 -32.007  1.00  0.00    -0.496 OA
ATOM     12  C   UNL     1      -9.341  -0.593 -33.030  1.00  0.00     0.278 C 
ENDBRANCH   8  11
ENDBRANCH   1   3
BRANCH   2  13
ATOM     13  C   UNL     1     -10.108  -5.908 -29.309  1.00  0.00     0.328 C 
ATOM     14  O   UNL     1     -11.010  -6.110 -30.105  1.00  0.00    -0.247 OA
BRANCH  13  15
ATOM     15  O   UNL     1     -10.003  -6.553 -28.130  1.00  0.00    -0.478 OA
ATOM     16  H   UNL     1      -9.170  -6.400 -27.648  1.00  0.00     0.297 HD
ENDBRANCH  13  15
ENDBRANCH   2  13
TORSDOF 5
ENDMDL
MODEL 8
REMARK VINA RESULT:      -5.6      1.972      5.737
REMARK SMILES COc1ccc(OC)c(C=CC(=O)O)c1
REMARK SMILES IDX 10 1 11 2 9 3 3 4 15 5 4 6 5 7 6 8 2 9 1 10 7 11 8 12 12 13
REMARK SMILES IDX 13 14 14 15
REMARK H PARENT 14 16
ROOT
ATOM      1  C   UNL     1      -5.023  -0.286 -30.627  1.00  0.00     0.019 C 
ATOM      2  C   UNL     1      -3.889  -0.911 -30.277  1.00  0.00     0.094 C 
ENDROOT
BRANCH   1   3
ATOM      3  C   UNL     1      -6.317  -0.977 -30.745  1.00  0.00     0.020 A 
ATOM      4  C   UNL     1      -7.747  -2.798 -29.980  1.00  0.00     0.119 A 
ATOM      5  C   UNL     1      -6.540  -2.093 -29.919  1.00  0.00     0.058 A 
ATOM      6  C   UNL     1      -8.740  -2.384 -30.869  1.00  0.00     0.050 A 
ATOM      7  C   UNL     1      -8.543  -1.270 -31.683  1.00  0.00     0.051 A 
ATOM      8  C   UNL     1      -7.348  -0.556 -31.601  1.00  0.00     0.126 A 
BRANCH   4   9
ATOM      9  O   UNL     1      -8.073  -3.899 -29.236  1.00  0.00    -0.497 OA
ATOM     10  C   UNL     1      -9.200  -3.787 -28.375  1.00  0.00     0.278 C 
ENDBRANCH   4   9
BRANCH   8  11
ATOM     11  O   UNL     1      -7.182   0.535 -32.419  1.00  0.00    -0.496 OA
ATOM     12  C   UNL     1      -8.125   0.486 -33.493  1.00  0.00     0.278 C 
ENDBRANCH   8  11
ENDBRANCH   1   3
BRANCH   2  13
ATOM     13  C   UNL     1      -2.638  -0.138 -30.169  1.00  0.00     0.328 C 
ATOM     14  O   UNL     1      -2.119   0.199 -29.119  1.00  0.00    -0.247 OA
BRANCH  13  15
ATOM     15  O   UNL     1      -2.125   0.163 -31.379  1.00  0.00    -0.478 OA
ATOM     16  H   UNL     1      -1.495  -0.489 -31.734  1.00  0.00     0.297 HD
ENDBRANCH  13  15
ENDBRANCH   2  13
TORSDOF 5
ENDMDL
MODEL 9
REMARK VINA RESULT:      -5.6      3.476      4.580
REMARK SMILES COc1ccc(OC)c(C=CC(=O)O)c1
REMARK SMILES IDX 10 1 11 2 9 3 3 4 15 5 4 6 5 7 6 8 2 9 1 10 7 11 8 12 12 13
REMARK SMILES IDX 13 14 14 15
REMARK H PARENT 14 16
ROOT
ATOM      1  C   UNL     1      -6.943  -2.996 -28.551  1.00  0.00     0.019 C 
ATOM      2  C   UNL     1      -7.727  -3.322 -29.588  1.00  0.00     0.094 C 
ENDROOT
BRANCH   1   3
ATOM      3  C   UNL     1      -5.748  -2.145 -28.682  1.00  0.00     0.020 A 
ATOM      4  C   UNL     1      -4.276  -0.895 -30.169  1.00  0.00     0.119 A 
ATOM      5  C   UNL     1      -5.399  -1.705 -29.970  1.00  0.00     0.058 A 
ATOM      6  C   UNL     1      -3.497  -0.520 -29.072  1.00  0.00     0.050 A 
ATOM      7  C   UNL     1      -3.838  -0.934 -27.785  1.00  0.00     0.051 A 
ATOM      8  C   UNL     1      -4.973  -1.721 -27.590  1.00  0.00     0.126 A 
BRANCH   4   9
ATOM      9  O   UNL     1      -3.833  -0.414 -31.371  1.00  0.00    -0.497 OA
ATOM     10  C   UNL     1      -4.271   0.886 -31.747  1.00  0.00     0.278 C 
ENDBRANCH   4   9
BRANCH   8  11
ATOM     11  O   UNL     1      -5.281  -2.116 -26.311  1.00  0.00    -0.496 OA
ATOM     12  C   UNL     1      -5.355  -0.975 -25.454  1.00  0.00     0.278 C 
ENDBRANCH   8  11
ENDBRANCH   1   3
BRANCH   2  13
ATOM     13  C   UNL     1      -8.913  -4.169 -29.364  1.00  0.00     0.328 C 
ATOM     14  O   UNL     1      -9.754  -4.423 -30.210  1.00  0.00    -0.247 OA
BRANCH  13  15
ATOM     15  O   UNL     1      -8.968  -4.636 -28.101  1.00  0.00    -0.478 OA
ATOM     16  H   UNL     1      -8.310  -4.258 -27.491  1.00  0.00     0.297 HD
ENDBRANCH  13  15
ENDBRANCH   2  13
TORSDOF 5
ENDMDL
MODEL 10
REMARK VINA RESULT:      -5.5      2.071      4.205
REMARK SMILES COc1ccc(OC)c(C=CC(=O)O)c1
REMARK SMILES IDX 10 1 11 2 9 3 3 4 15 5 4 6 5 7 6 8 2 9 1 10 7 11 8 12 12 13
REMARK SMILES IDX 13 14 14 15
REMARK H PARENT 14 16
ROOT
ATOM      1  C   UNL     1      -7.681  -2.249 -30.128  1.00  0.00     0.019 C 
ATOM      2  C   UNL     1      -7.572  -3.581 -30.023  1.00  0.00     0.094 C 
ENDROOT
BRANCH   1   3
ATOM      3  C   UNL     1      -6.532  -1.366 -30.385  1.00  0.00     0.020 A 
ATOM      4  C   UNL     1      -4.195  -0.853 -29.914  1.00  0.00     0.119 A 
ATOM      5  C   UNL     1      -5.327  -1.651 -29.719  1.00  0.00     0.058 A 
ATOM      6  C   UNL     1      -4.265   0.237 -30.784  1.00  0.00     0.050 A 
ATOM      7  C   UNL     1      -5.447   0.525 -31.466  1.00  0.00     0.051 A 
ATOM      8  C   UNL     1      -6.565  -0.289 -31.285  1.00  0.00     0.126 A 
BRANCH   4   9
ATOM      9  O   UNL     1      -2.976  -1.027 -29.318  1.00  0.00    -0.497 OA
ATOM     10  C   UNL     1      -2.289   0.146 -28.898  1.00  0.00     0.278 C 
ENDBRANCH   4   9
BRANCH   8  11
ATOM     11  O   UNL     1      -7.715   0.024 -31.968  1.00  0.00    -0.496 OA
ATOM     12  C   UNL     1      -7.422   0.943 -33.022  1.00  0.00     0.278 C 
ENDBRANCH   8  11
ENDBRANCH   1   3
BRANCH   2  13
ATOM     13  C   UNL     1      -8.779  -4.391 -29.777  1.00  0.00     0.328 C 
ATOM     14  O   UNL     1      -9.644  -4.616 -30.607  1.00  0.00    -0.247 OA
BRANCH  13  15
ATOM     15  O   UNL     1      -8.824  -4.862 -28.515  1.00  0.00    -0.478 OA
ATOM     16  H   UNL     1      -8.345  -4.327 -27.857  1.00  0.00     0.297 HD
ENDBRANCH  13  15
ENDBRANCH   2  13
TORSDOF 5
ENDMDL
