MODEL 1
REMARK VINA RESULT:      -6.6      0.000      0.000
REMARK SMILES CCOC(=O)c1cc(O)c(O)c(O)c1
REMARK SMILES IDX 4 1 5 2 3 3 2 4 1 5 6 6 14 7 7 8 12 9 8 10 10 11 13 12 9 14
REMARK SMILES IDX 11 16
REMARK H PARENT 13 13 9 15 11 17
ROOT
ATOM      1  C   UNL     1       6.532  -2.501 -20.437  1.00  0.00     0.338 C 
ATOM      2  O   UNL     1       6.943  -3.633 -20.639  1.00  0.00    -0.246 OA
ENDROOT
BRANCH   1   3
ATOM      3  O   UNL     1       5.747  -1.775 -21.270  1.00  0.00    -0.462 OA
BRANCH   3   4
ATOM      4  C   UNL     1       4.985  -2.526 -22.226  1.00  0.00     0.230 C 
ATOM      5  C   UNL     1       5.004  -1.829 -23.573  1.00  0.00     0.049 C 
ENDBRANCH   3   4
ENDBRANCH   1   3
BRANCH   1   6
ATOM      6  C   UNL     1       6.853  -1.729 -19.206  1.00  0.00     0.067 A 
ATOM      7  C   UNL     1       6.175  -2.076 -18.022  1.00  0.00     0.066 A 
ATOM      8  C   UNL     1       7.797  -0.690 -19.198  1.00  0.00     0.066 A 
ATOM      9  C   UNL     1       6.448  -1.383 -16.848  1.00  0.00     0.162 A 
ATOM     10  C   UNL     1       8.051  -0.013 -18.013  1.00  0.00     0.162 A 
ATOM     11  C   UNL     1       7.382  -0.355 -16.845  1.00  0.00     0.200 A 
BRANCH   9  12
ATOM     12  O   UNL     1       5.821  -1.677 -15.669  1.00  0.00    -0.504 OA
ATOM     13  H   UNL     1       5.671  -2.639 -15.632  1.00  0.00     0.293 HD
ENDBRANCH   9  12
BRANCH  10  14
ATOM     14  O   UNL     1       8.969   0.998 -18.003  1.00  0.00    -0.504 OA
ATOM     15  H   UNL     1       9.498   0.846 -17.194  1.00  0.00     0.293 HD
ENDBRANCH  10  14
BRANCH  11  16
ATOM     16  O   UNL     1       7.658   0.333 -15.695  1.00  0.00    -0.502 OA
ATOM     17  H   UNL     1       8.190  -0.292 -15.160  1.00  0.00     0.293 HD
ENDBRANCH  11  16
ENDBRANCH   1   6
TORSDOF 6
ENDMDL
MODEL 2
REMARK VINA RESULT:      -6.5      0.089      2.214
REMARK SMILES CCOC(=O)c1cc(O)c(O)c(O)c1
REMARK SMILES IDX 4 1 5 2 3 3 2 4 1 5 6 6 14 7 7 8 12 9 8 10 10 11 13 12 9 14
REMARK SMILES IDX 11 16
REMARK H PARENT 13 13 9 15 11 17
ROOT
ATOM      1  C   UNL     1       6.631  -2.481 -20.415  1.00  0.00     0.338 C 
ATOM      2  O   UNL     1       7.137  -3.564 -20.669  1.00  0.00    -0.246 OA
ENDROOT
BRANCH   1   3
ATOM      3  O   UNL     1       5.792  -1.783 -21.217  1.00  0.00    -0.462 OA
BRANCH   3   4
ATOM      4  C   UNL     1       5.017  -2.560 -22.142  1.00  0.00     0.230 C 
ATOM      5  C   UNL     1       4.940  -1.853 -23.482  1.00  0.00     0.049 C 
ENDBRANCH   3   4
ENDBRANCH   1   3
BRANCH   1   6
ATOM      6  C   UNL     1       6.879  -1.750 -19.144  1.00  0.00     0.067 A 
ATOM      7  C   UNL     1       7.822  -0.705 -19.164  1.00  0.00     0.066 A 
ATOM      8  C   UNL     1       6.207  -2.068 -17.953  1.00  0.00     0.066 A 
ATOM      9  C   UNL     1       8.082   0.007 -17.997  1.00  0.00     0.162 A 
ATOM     10  C   UNL     1       6.483  -1.342 -16.802  1.00  0.00     0.162 A 
ATOM     11  C   UNL     1       7.414  -0.311 -16.822  1.00  0.00     0.200 A 
BRANCH   9  12
ATOM     12  O   UNL     1       8.986   1.031 -17.958  1.00  0.00    -0.504 OA
ATOM     13  H   UNL     1       8.568   1.826 -18.337  1.00  0.00     0.293 HD
ENDBRANCH   9  12
BRANCH  10  14
ATOM     14  O   UNL     1       5.830  -1.650 -15.643  1.00  0.00    -0.504 OA
ATOM     15  H   UNL     1       5.159  -0.945 -15.541  1.00  0.00     0.293 HD
ENDBRANCH  10  14
BRANCH  11  16
ATOM     16  O   UNL     1       7.661   0.384 -15.669  1.00  0.00    -0.502 OA
ATOM     17  H   UNL     1       8.412  -0.091 -15.256  1.00  0.00     0.293 HD
ENDBRANCH  11  16
ENDBRANCH   1   6
TORSDOF 6
ENDMDL
MODEL 3
REMARK VINA RESULT:      -6.2     12.914     15.064
REMARK SMILES CCOC(=O)c1cc(O)c(O)c(O)c1
REMARK SMILES IDX 4 1 5 2 3 3 2 4 1 5 6 6 14 7 7 8 12 9 8 10 10 11 13 12 9 14
REMARK SMILES IDX 11 16
REMARK H PARENT 13 13 9 15 11 17
ROOT
ATOM      1  C   UNL     1      -2.841  -9.137 -27.680  1.00  0.00     0.338 C 
ATOM      2  O   UNL     1      -2.916  -8.755 -28.837  1.00  0.00    -0.246 OA
ENDROOT
BRANCH   1   3
ATOM      3  O   UNL     1      -3.721  -8.860 -26.687  1.00  0.00    -0.462 OA
BRANCH   3   4
ATOM      4  C   UNL     1      -5.088  -9.210 -26.947  1.00  0.00     0.230 C 
ATOM      5  C   UNL     1      -5.328 -10.667 -26.599  1.00  0.00     0.049 C 
ENDBRANCH   3   4
ENDBRANCH   1   3
BRANCH   1   6
ATOM      6  C   UNL     1      -1.728  -9.987 -27.178  1.00  0.00     0.067 A 
ATOM      7  C   UNL     1      -1.690 -11.330 -27.599  1.00  0.00     0.066 A 
ATOM      8  C   UNL     1      -0.736  -9.491 -26.317  1.00  0.00     0.066 A 
ATOM      9  C   UNL     1      -0.664 -12.159 -27.156  1.00  0.00     0.162 A 
ATOM     10  C   UNL     1       0.277 -10.339 -25.889  1.00  0.00     0.162 A 
ATOM     11  C   UNL     1       0.315 -11.664 -26.304  1.00  0.00     0.200 A 
BRANCH   9  12
ATOM     12  O   UNL     1      -0.577 -13.470 -27.533  1.00  0.00    -0.504 OA
ATOM     13  H   UNL     1      -0.168 -13.510 -28.416  1.00  0.00     0.293 HD
ENDBRANCH   9  12
BRANCH  10  14
ATOM     14  O   UNL     1       1.243  -9.858 -25.051  1.00  0.00    -0.504 OA
ATOM     15  H   UNL     1       2.018  -9.704 -25.628  1.00  0.00     0.293 HD
ENDBRANCH  10  14
BRANCH  11  16
ATOM     16  O   UNL     1       1.328 -12.470 -25.863  1.00  0.00    -0.502 OA
ATOM     17  H   UNL     1       1.446 -12.220 -24.924  1.00  0.00     0.293 HD
ENDBRANCH  11  16
ENDBRANCH   1   6
TORSDOF 6
ENDMDL
MODEL 4
REMARK VINA RESULT:      -6.1     12.963     15.140
REMARK SMILES CCOC(=O)c1cc(O)c(O)c(O)c1
REMARK SMILES IDX 4 1 5 2 3 3 2 4 1 5 6 6 14 7 7 8 12 9 8 10 10 11 13 12 9 14
REMARK SMILES IDX 11 16
REMARK H PARENT 13 13 9 15 11 17
ROOT
ATOM      1  C   UNL     1      -2.831  -9.148 -27.620  1.00  0.00     0.338 C 
ATOM      2  O   UNL     1      -2.864  -8.686 -28.749  1.00  0.00    -0.246 OA
ENDROOT
BRANCH   1   3
ATOM      3  O   UNL     1      -3.724  -8.906 -26.630  1.00  0.00    -0.462 OA
BRANCH   3   4
ATOM      4  C   UNL     1      -5.088  -9.246 -26.920  1.00  0.00     0.230 C 
ATOM      5  C   UNL     1      -5.345 -10.702 -26.583  1.00  0.00     0.049 C 
ENDBRANCH   3   4
ENDBRANCH   1   3
BRANCH   1   6
ATOM      6  C   UNL     1      -1.763 -10.074 -27.154  1.00  0.00     0.067 A 
ATOM      7  C   UNL     1      -0.863  -9.598 -26.182  1.00  0.00     0.066 A 
ATOM      8  C   UNL     1      -1.638 -11.382 -27.649  1.00  0.00     0.066 A 
ATOM      9  C   UNL     1       0.148 -10.432 -25.717  1.00  0.00     0.162 A 
ATOM     10  C   UNL     1      -0.619 -12.195 -27.169  1.00  0.00     0.162 A 
ATOM     11  C   UNL     1       0.269 -11.726 -26.210  1.00  0.00     0.200 A 
BRANCH   9  12
ATOM     12  O   UNL     1       1.049 -10.024 -24.774  1.00  0.00    -0.504 OA
ATOM     13  H   UNL     1       1.219 -10.768 -24.167  1.00  0.00     0.293 HD
ENDBRANCH   9  12
BRANCH  10  14
ATOM     14  O   UNL     1      -0.496 -13.467 -27.649  1.00  0.00    -0.504 OA
ATOM     15  H   UNL     1      -0.787 -13.411 -28.581  1.00  0.00     0.293 HD
ENDBRANCH  10  14
BRANCH  11  16
ATOM     16  O   UNL     1       1.259 -12.554 -25.758  1.00  0.00    -0.502 OA
ATOM     17  H   UNL     1       1.281 -13.285 -26.410  1.00  0.00     0.293 HD
ENDBRANCH  11  16
ENDBRANCH   1   6
TORSDOF 6
ENDMDL
MODEL 5
REMARK VINA RESULT:      -6.1     13.003     14.687
REMARK SMILES CCOC(=O)c1cc(O)c(O)c(O)c1
REMARK SMILES IDX 4 1 5 2 3 3 2 4 1 5 6 6 14 7 7 8 12 9 8 10 10 11 13 12 9 14
REMARK SMILES IDX 11 16
REMARK H PARENT 13 13 9 15 11 17
ROOT
ATOM      1  C   UNL     1      -5.663  -1.627 -26.991  1.00  0.00     0.338 C 
ATOM      2  O   UNL     1      -6.761  -1.901 -27.450  1.00  0.00    -0.246 OA
ENDROOT
BRANCH   1   3
ATOM      3  O   UNL     1      -5.286  -1.746 -25.695  1.00  0.00    -0.462 OA
BRANCH   3   4
ATOM      4  C   UNL     1      -6.069  -1.009 -24.745  1.00  0.00     0.230 C 
ATOM      5  C   UNL     1      -5.226   0.077 -24.104  1.00  0.00     0.049 C 
ENDBRANCH   3   4
ENDBRANCH   1   3
BRANCH   1   6
ATOM      6  C   UNL     1      -4.546  -1.102 -27.821  1.00  0.00     0.067 A 
ATOM      7  C   UNL     1      -4.483  -1.509 -29.167  1.00  0.00     0.066 A 
ATOM      8  C   UNL     1      -3.578  -0.225 -27.305  1.00  0.00     0.066 A 
ATOM      9  C   UNL     1      -3.456  -1.038 -29.979  1.00  0.00     0.162 A 
ATOM     10  C   UNL     1      -2.563   0.231 -28.136  1.00  0.00     0.162 A 
ATOM     11  C   UNL     1      -2.500  -0.172 -29.463  1.00  0.00     0.200 A 
BRANCH   9  12
ATOM     12  O   UNL     1      -3.346  -1.399 -31.292  1.00  0.00    -0.504 OA
ATOM     13  H   UNL     1      -2.725  -0.788 -31.729  1.00  0.00     0.293 HD
ENDBRANCH   9  12
BRANCH  10  14
ATOM     14  O   UNL     1      -1.620   1.083 -27.636  1.00  0.00    -0.504 OA
ATOM     15  H   UNL     1      -1.883   1.226 -26.705  1.00  0.00     0.293 HD
ENDBRANCH  10  14
BRANCH  11  16
ATOM     16  O   UNL     1      -1.487   0.298 -30.254  1.00  0.00    -0.502 OA
ATOM     17  H   UNL     1      -1.806   1.171 -30.563  1.00  0.00     0.293 HD
ENDBRANCH  11  16
ENDBRANCH   1   6
TORSDOF 6
ENDMDL
MODEL 6
REMARK VINA RESULT:      -6.1     13.021     14.728
REMARK SMILES CCOC(=O)c1cc(O)c(O)c(O)c1
REMARK SMILES IDX 4 1 5 2 3 3 2 4 1 5 6 6 14 7 7 8 12 9 8 10 10 11 13 12 9 14
REMARK SMILES IDX 11 16
REMARK H PARENT 13 13 9 15 11 17
ROOT
ATOM      1  C   UNL     1      -5.588  -1.738 -27.112  1.00  0.00     0.338 C 
ATOM      2  O   UNL     1      -6.658  -2.132 -27.548  1.00  0.00    -0.246 OA
ENDROOT
BRANCH   1   3
ATOM      3  O   UNL     1      -5.212  -1.723 -25.810  1.00  0.00    -0.462 OA
BRANCH   3   4
ATOM      4  C   UNL     1      -6.092  -1.030 -24.912  1.00  0.00     0.230 C 
ATOM      5  C   UNL     1      -5.317   0.001 -24.114  1.00  0.00     0.049 C 
ENDBRANCH   3   4
ENDBRANCH   1   3
BRANCH   1   6
ATOM      6  C   UNL     1      -4.508  -1.196 -27.980  1.00  0.00     0.067 A 
ATOM      7  C   UNL     1      -3.568  -0.329 -27.391  1.00  0.00     0.066 A 
ATOM      8  C   UNL     1      -4.405  -1.526 -29.341  1.00  0.00     0.066 A 
ATOM      9  C   UNL     1      -2.541   0.197 -28.167  1.00  0.00     0.162 A 
ATOM     10  C   UNL     1      -3.370  -0.988 -30.094  1.00  0.00     0.162 A 
ATOM     11  C   UNL     1      -2.443  -0.132 -29.513  1.00  0.00     0.200 A 
BRANCH   9  12
ATOM     12  O   UNL     1      -1.601   1.043 -27.649  1.00  0.00    -0.504 OA
ATOM     13  H   UNL     1      -1.207   1.552 -28.381  1.00  0.00     0.293 HD
ENDBRANCH   9  12
BRANCH  10  14
ATOM     14  O   UNL     1      -3.268  -1.307 -31.417  1.00  0.00    -0.504 OA
ATOM     15  H   UNL     1      -2.311  -1.258 -31.612  1.00  0.00     0.293 HD
ENDBRANCH  10  14
BRANCH  11  16
ATOM     16  O   UNL     1      -1.436   0.380 -30.284  1.00  0.00    -0.502 OA
ATOM     17  H   UNL     1      -1.721   1.296 -30.479  1.00  0.00     0.293 HD
ENDBRANCH  11  16
ENDBRANCH   1   6
TORSDOF 6
ENDMDL
MODEL 7
REMARK VINA RESULT:      -5.8      1.907      2.765
REMARK SMILES CCOC(=O)c1cc(O)c(O)c(O)c1
REMARK SMILES IDX 4 1 5 2 3 3 2 4 1 5 6 6 14 7 7 8 12 9 8 10 10 11 13 12 9 14
REMARK SMILES IDX 11 16
REMARK H PARENT 13 13 9 15 11 17
ROOT
ATOM      1  C   UNL     1       6.631  -1.656 -18.246  1.00  0.00     0.338 C 
ATOM      2  O   UNL     1       6.034  -2.544 -17.658  1.00  0.00    -0.246 OA
ENDROOT
BRANCH   1   3
ATOM      3  O   UNL     1       6.637  -1.447 -19.584  1.00  0.00    -0.462 OA
BRANCH   3   4
ATOM      4  C   UNL     1       6.470  -2.614 -20.402  1.00  0.00     0.230 C 
ATOM      5  C   UNL     1       5.614  -2.286 -21.611  1.00  0.00     0.049 C 
ENDBRANCH   3   4
ENDBRANCH   1   3
BRANCH   1   6
ATOM      6  C   UNL     1       7.471  -0.645 -17.548  1.00  0.00     0.067 A 
ATOM      7  C   UNL     1       6.898   0.613 -17.286  1.00  0.00     0.066 A 
ATOM      8  C   UNL     1       8.791  -0.913 -17.152  1.00  0.00     0.066 A 
ATOM      9  C   UNL     1       7.647   1.586 -16.633  1.00  0.00     0.162 A 
ATOM     10  C   UNL     1       9.519   0.074 -16.501  1.00  0.00     0.162 A 
ATOM     11  C   UNL     1       8.953   1.316 -16.243  1.00  0.00     0.200 A 
BRANCH   9  12
ATOM     12  O   UNL     1       7.142   2.824 -16.352  1.00  0.00    -0.504 OA
ATOM     13  H   UNL     1       6.886   3.250 -17.190  1.00  0.00     0.293 HD
ENDBRANCH   9  12
BRANCH  10  14
ATOM     14  O   UNL     1      10.803  -0.184 -16.115  1.00  0.00    -0.504 OA
ATOM     15  H   UNL     1      11.334   0.528 -16.522  1.00  0.00     0.293 HD
ENDBRANCH  10  14
BRANCH  11  16
ATOM     16  O   UNL     1       9.698   2.266 -15.599  1.00  0.00    -0.502 OA
ATOM     17  H   UNL     1      10.410   2.487 -16.235  1.00  0.00     0.293 HD
ENDBRANCH  11  16
ENDBRANCH   1   6
TORSDOF 6
ENDMDL
MODEL 8
REMARK VINA RESULT:      -5.7      1.899      2.874
REMARK SMILES CCOC(=O)c1cc(O)c(O)c(O)c1
REMARK SMILES IDX 4 1 5 2 3 3 2 4 1 5 6 6 14 7 7 8 12 9 8 10 10 11 13 12 9 14
REMARK SMILES IDX 11 16
REMARK H PARENT 13 13 9 15 11 17
ROOT
ATOM      1  C   UNL     1       6.628  -1.711 -18.215  1.00  0.00     0.338 C 
ATOM      2  O   UNL     1       6.021  -2.581 -17.612  1.00  0.00    -0.246 OA
ENDROOT
BRANCH   1   3
ATOM      3  O   UNL     1       6.696  -1.569 -19.562  1.00  0.00    -0.462 OA
BRANCH   3   4
ATOM      4  C   UNL     1       6.398  -2.744 -20.330  1.00  0.00     0.230 C 
ATOM      5  C   UNL     1       5.640  -2.365 -21.589  1.00  0.00     0.049 C 
ENDBRANCH   3   4
ENDBRANCH   1   3
BRANCH   1   6
ATOM      6  C   UNL     1       7.411  -0.646 -17.532  1.00  0.00     0.067 A 
ATOM      7  C   UNL     1       8.733  -0.948 -17.152  1.00  0.00     0.066 A 
ATOM      8  C   UNL     1       6.876   0.624 -17.266  1.00  0.00     0.066 A 
ATOM      9  C   UNL     1       9.501   0.020 -16.514  1.00  0.00     0.162 A 
ATOM     10  C   UNL     1       7.662   1.573 -16.627  1.00  0.00     0.162 A 
ATOM     11  C   UNL     1       8.966   1.275 -16.252  1.00  0.00     0.200 A 
BRANCH   9  12
ATOM     12  O   UNL     1      10.789  -0.217 -16.124  1.00  0.00    -0.504 OA
ATOM     13  H   UNL     1      11.008   0.392 -15.395  1.00  0.00     0.293 HD
ENDBRANCH   9  12
BRANCH  10  14
ATOM     14  O   UNL     1       7.143   2.809 -16.368  1.00  0.00    -0.504 OA
ATOM     15  H   UNL     1       6.191   2.650 -16.207  1.00  0.00     0.293 HD
ENDBRANCH  10  14
BRANCH  11  16
ATOM     16  O   UNL     1       9.714   2.234 -15.626  1.00  0.00    -0.502 OA
ATOM     17  H   UNL     1      10.193   1.748 -14.923  1.00  0.00     0.293 HD
ENDBRANCH  11  16
ENDBRANCH   1   6
TORSDOF 6
ENDMDL
MODEL 9
REMARK VINA RESULT:      -5.6     16.701     20.200
REMARK SMILES CCOC(=O)c1cc(O)c(O)c(O)c1
REMARK SMILES IDX 4 1 5 2 3 3 2 4 1 5 6 6 14 7 7 8 12 9 8 10 10 11 13 12 9 14
REMARK SMILES IDX 11 16
REMARK H PARENT 13 13 9 15 11 17
ROOT
ATOM      1  C   UNL     1      -6.373   0.906 -31.560  1.00  0.00     0.338 C 
ATOM      2  O   UNL     1      -6.001   2.059 -31.404  1.00  0.00    -0.246 OA
ENDROOT
BRANCH   1   3
ATOM      3  O   UNL     1      -5.587  -0.197 -31.544  1.00  0.00    -0.462 OA
BRANCH   3   4
ATOM      4  C   UNL     1      -4.597  -0.246 -30.506  1.00  0.00     0.230 C 
ATOM      5  C   UNL     1      -4.630  -1.598 -29.819  1.00  0.00     0.049 C 
ENDBRANCH   3   4
ENDBRANCH   1   3
BRANCH   1   6
ATOM      6  C   UNL     1      -7.795   0.539 -31.801  1.00  0.00     0.067 A 
ATOM      7  C   UNL     1      -8.205  -0.759 -31.444  1.00  0.00     0.066 A 
ATOM      8  C   UNL     1      -8.716   1.439 -32.361  1.00  0.00     0.066 A 
ATOM      9  C   UNL     1      -9.526  -1.142 -31.650  1.00  0.00     0.162 A 
ATOM     10  C   UNL     1     -10.029   1.033 -32.557  1.00  0.00     0.162 A 
ATOM     11  C   UNL     1     -10.434  -0.248 -32.204  1.00  0.00     0.200 A 
BRANCH   9  12
ATOM     12  O   UNL     1      -9.980  -2.389 -31.321  1.00  0.00    -0.504 OA
ATOM     13  H   UNL     1     -10.933  -2.432 -31.520  1.00  0.00     0.293 HD
ENDBRANCH   9  12
BRANCH  10  14
ATOM     14  O   UNL     1     -10.926   1.907 -33.101  1.00  0.00    -0.504 OA
ATOM     15  H   UNL     1     -10.456   2.305 -33.861  1.00  0.00     0.293 HD
ENDBRANCH  10  14
BRANCH  11  16
ATOM     16  O   UNL     1     -11.736  -0.615 -32.410  1.00  0.00    -0.502 OA
ATOM     17  H   UNL     1     -11.693  -1.579 -32.576  1.00  0.00     0.293 HD
ENDBRANCH  11  16
ENDBRANCH   1   6
TORSDOF 6
ENDMDL
MODEL 10
REMARK VINA RESULT:      -5.6     13.208     15.283
REMARK SMILES CCOC(=O)c1cc(O)c(O)c(O)c1
REMARK SMILES IDX 4 1 5 2 3 3 2 4 1 5 6 6 14 7 7 8 12 9 8 10 10 11 13 12 9 14
REMARK SMILES IDX 11 16
REMARK H PARENT 13 13 9 15 11 17
ROOT
ATOM      1  C   UNL     1      -5.551  -1.943 -27.703  1.00  0.00     0.338 C 
ATOM      2  O   UNL     1      -5.403  -2.483 -26.617  1.00  0.00    -0.246 OA
ENDROOT
BRANCH   1   3
ATOM      3  O   UNL     1      -6.716  -1.824 -28.384  1.00  0.00    -0.462 OA
BRANCH   3   4
ATOM      4  C   UNL     1      -7.574  -0.748 -27.975  1.00  0.00     0.230 C 
ATOM      5  C   UNL     1      -8.591  -0.451 -29.061  1.00  0.00     0.049 C 
ENDBRANCH   3   4
ENDBRANCH   1   3
BRANCH   1   6
ATOM      6  C   UNL     1      -4.431  -1.320 -28.458  1.00  0.00     0.067 A 
ATOM      7  C   UNL     1      -3.528  -0.511 -27.741  1.00  0.00     0.066 A 
ATOM      8  C   UNL     1      -4.254  -1.521 -29.836  1.00  0.00     0.066 A 
ATOM      9  C   UNL     1      -2.465   0.086 -28.409  1.00  0.00     0.162 A 
ATOM     10  C   UNL     1      -3.185  -0.912 -30.480  1.00  0.00     0.162 A 
ATOM     11  C   UNL     1      -2.295  -0.114 -29.773  1.00  0.00     0.200 A 
BRANCH   9  12
ATOM     12  O   UNL     1      -1.558   0.881 -27.764  1.00  0.00    -0.504 OA
ATOM     13  H   UNL     1      -1.798   0.919 -26.821  1.00  0.00     0.293 HD
ENDBRANCH   9  12
BRANCH  10  14
ATOM     14  O   UNL     1      -3.012  -1.106 -31.820  1.00  0.00    -0.504 OA
ATOM     15  H   UNL     1      -3.916  -1.094 -32.192  1.00  0.00     0.293 HD
ENDBRANCH  10  14
BRANCH  11  16
ATOM     16  O   UNL     1      -1.251   0.469 -30.438  1.00  0.00    -0.502 OA
ATOM     17  H   UNL     1      -1.434   1.429 -30.382  1.00  0.00     0.293 HD
ENDBRANCH  11  16
ENDBRANCH   1   6
TORSDOF 6
ENDMDL
