MODEL 1
REMARK VINA RESULT:      -6.1      0.000      0.000
REMARK SMILES CC(C)[C@H]1CC[C@@H](O)CC1
REMARK SMILES IDX 4 1 5 2 6 3 7 4 9 5 10 6 2 7 1 8 3 9 8 10
REMARK H PARENT 8 11
ROOT
ATOM      1  C   UNL     1       6.656  -1.061 -19.002  1.00  0.00    -0.008 C 
ATOM      2  C   UNL     1       8.047  -0.397 -18.887  1.00  0.00     0.006 C 
ATOM      3  C   UNL     1       8.899  -1.014 -17.780  1.00  0.00     0.032 C 
ATOM      4  C   UNL     1       8.182  -0.972 -16.432  1.00  0.00     0.114 C 
ATOM      5  C   UNL     1       6.777  -1.573 -16.503  1.00  0.00     0.032 C 
ATOM      6  C   UNL     1       5.959  -0.947 -17.630  1.00  0.00     0.006 C 
ENDROOT
BRANCH   1   7
ATOM      7  C   UNL     1       6.708  -2.519 -19.554  1.00  0.00    -0.014 C 
ATOM      8  C   UNL     1       6.145  -2.616 -20.979  1.00  0.00     0.007 C 
ATOM      9  C   UNL     1       5.937  -3.501 -18.662  1.00  0.00     0.007 C 
ENDBRANCH   1   7
BRANCH   4  10
ATOM     10  O   UNL     1       8.951  -1.670 -15.458  1.00  0.00    -0.393 OA
ATOM     11  H   UNL     1       9.186  -2.538 -15.829  1.00  0.00     0.210 HD
ENDBRANCH   4  10
TORSDOF 2
ENDMDL
MODEL 2
REMARK VINA RESULT:      -6.0     13.249     14.969
REMARK SMILES CC(C)[C@H]1CC[C@@H](O)CC1
REMARK SMILES IDX 4 1 5 2 6 3 7 4 9 5 10 6 2 7 1 8 3 9 8 10
REMARK H PARENT 8 11
ROOT
ATOM      1  C   UNL     1       0.175 -10.677 -27.053  1.00  0.00    -0.008 C 
ATOM      2  C   UNL     1       0.098  -9.135 -27.035  1.00  0.00     0.006 C 
ATOM      3  C   UNL     1      -1.238  -8.621 -26.503  1.00  0.00     0.032 C 
ATOM      4  C   UNL     1      -2.414  -9.198 -27.291  1.00  0.00     0.114 C 
ATOM      5  C   UNL     1      -2.358 -10.724 -27.381  1.00  0.00     0.032 C 
ATOM      6  C   UNL     1      -1.004 -11.204 -27.900  1.00  0.00     0.006 C 
ENDROOT
BRANCH   1   7
ATOM      7  C   UNL     1       0.249 -11.312 -25.629  1.00  0.00    -0.014 C 
ATOM      8  C   UNL     1       1.250 -10.579 -24.724  1.00  0.00     0.007 C 
ATOM      9  C   UNL     1       0.637 -12.795 -25.678  1.00  0.00     0.007 C 
ENDBRANCH   1   7
BRANCH   4  10
ATOM     10  O   UNL     1      -3.638  -8.800 -26.684  1.00  0.00    -0.393 OA
ATOM     11  H   UNL     1      -3.673  -9.192 -25.794  1.00  0.00     0.210 HD
ENDBRANCH   4  10
TORSDOF 2
ENDMDL
MODEL 3
REMARK VINA RESULT:      -5.8     19.909     21.951
REMARK SMILES CC(C)[C@H]1CC[C@@H](O)CC1
REMARK SMILES IDX 4 1 5 2 6 3 7 4 9 5 10 6 2 7 1 8 3 9 8 10
REMARK H PARENT 8 11
ROOT
ATOM      1  C   UNL     1      -7.823   1.626 -32.775  1.00  0.00    -0.008 C 
ATOM      2  C   UNL     1      -9.138   2.431 -32.675  1.00  0.00     0.006 C 
ATOM      3  C   UNL     1     -10.339   1.550 -32.342  1.00  0.00     0.032 C 
ATOM      4  C   UNL     1     -10.494   0.410 -33.348  1.00  0.00     0.114 C 
ATOM      5  C   UNL     1      -9.202  -0.389 -33.523  1.00  0.00     0.032 C 
ATOM      6  C   UNL     1      -8.019   0.524 -33.837  1.00  0.00     0.006 C 
ENDROOT
BRANCH   1   7
ATOM      7  C   UNL     1      -7.321   1.084 -31.401  1.00  0.00    -0.014 C 
ATOM      8  C   UNL     1      -7.046   2.216 -30.401  1.00  0.00     0.007 C 
ATOM      9  C   UNL     1      -6.045   0.244 -31.544  1.00  0.00     0.007 C 
ENDBRANCH   1   7
BRANCH   4  10
ATOM     10  O   UNL     1     -11.541  -0.459 -32.931  1.00  0.00    -0.393 OA
ATOM     11  H   UNL     1     -12.090  -0.662 -33.708  1.00  0.00     0.210 HD
ENDBRANCH   4  10
TORSDOF 2
ENDMDL
MODEL 4
REMARK VINA RESULT:      -5.5     19.454     21.370
REMARK SMILES CC(C)[C@H]1CC[C@@H](O)CC1
REMARK SMILES IDX 4 1 5 2 6 3 7 4 9 5 10 6 2 7 1 8 3 9 8 10
REMARK H PARENT 8 11
ROOT
ATOM      1  C   UNL     1      -7.299   0.301 -31.893  1.00  0.00    -0.008 C 
ATOM      2  C   UNL     1      -7.673   0.828 -33.296  1.00  0.00     0.006 C 
ATOM      3  C   UNL     1      -9.179   1.022 -33.466  1.00  0.00     0.032 C 
ATOM      4  C   UNL     1      -9.947  -0.265 -33.164  1.00  0.00     0.114 C 
ATOM      5  C   UNL     1      -9.574  -0.857 -31.804  1.00  0.00     0.032 C 
ATOM      6  C   UNL     1      -8.063  -1.020 -31.661  1.00  0.00     0.006 C 
ENDROOT
BRANCH   1   7
ATOM      7  C   UNL     1      -7.514   1.350 -30.758  1.00  0.00    -0.014 C 
ATOM      8  C   UNL     1      -6.486   2.489 -30.826  1.00  0.00     0.007 C 
ATOM      9  C   UNL     1      -7.439   0.714 -29.364  1.00  0.00     0.007 C 
ENDBRANCH   1   7
BRANCH   4  10
ATOM     10  O   UNL     1     -11.346  -0.008 -33.207  1.00  0.00    -0.393 OA
ATOM     11  H   UNL     1     -11.808  -0.862 -33.150  1.00  0.00     0.210 HD
ENDBRANCH   4  10
TORSDOF 2
ENDMDL
MODEL 5
REMARK VINA RESULT:      -5.5     13.444     15.196
REMARK SMILES CC(C)[C@H]1CC[C@@H](O)CC1
REMARK SMILES IDX 4 1 5 2 6 3 7 4 9 5 10 6 2 7 1 8 3 9 8 10
REMARK H PARENT 8 11
ROOT
ATOM      1  C   UNL     1      -2.031  -9.767 -27.896  1.00  0.00    -0.008 C 
ATOM      2  C   UNL     1      -1.375 -11.162 -27.995  1.00  0.00     0.006 C 
ATOM      3  C   UNL     1      -0.670 -11.570 -26.704  1.00  0.00     0.032 C 
ATOM      4  C   UNL     1       0.366 -10.530 -26.278  1.00  0.00     0.114 C 
ATOM      5  C   UNL     1      -0.222  -9.120 -26.214  1.00  0.00     0.032 C 
ATOM      6  C   UNL     1      -0.934  -8.751 -27.513  1.00  0.00     0.006 C 
ENDROOT
BRANCH   1   7
ATOM      7  C   UNL     1      -3.271  -9.730 -26.950  1.00  0.00    -0.014 C 
ATOM      8  C   UNL     1      -4.335 -10.759 -27.355  1.00  0.00     0.007 C 
ATOM      9  C   UNL     1      -3.928  -8.343 -26.915  1.00  0.00     0.007 C 
ENDBRANCH   1   7
BRANCH   4  10
ATOM     10  O   UNL     1       0.904 -10.882 -25.009  1.00  0.00    -0.393 OA
ATOM     11  H   UNL     1       1.179 -10.063 -24.563  1.00  0.00     0.210 HD
ENDBRANCH   4  10
TORSDOF 2
ENDMDL
MODEL 6
REMARK VINA RESULT:      -5.5     14.844     16.300
REMARK SMILES CC(C)[C@H]1CC[C@@H](O)CC1
REMARK SMILES IDX 4 1 5 2 6 3 7 4 9 5 10 6 2 7 1 8 3 9 8 10
REMARK H PARENT 8 11
ROOT
ATOM      1  C   UNL     1      -3.784   1.353 -28.348  1.00  0.00    -0.008 C 
ATOM      2  C   UNL     1      -2.434   0.606 -28.426  1.00  0.00     0.006 C 
ATOM      3  C   UNL     1      -2.069   0.204 -29.853  1.00  0.00     0.032 C 
ATOM      4  C   UNL     1      -3.173  -0.633 -30.500  1.00  0.00     0.114 C 
ATOM      5  C   UNL     1      -4.542   0.042 -30.405  1.00  0.00     0.032 C 
ATOM      6  C   UNL     1      -4.868   0.445 -28.969  1.00  0.00     0.006 C 
ENDROOT
BRANCH   1   7
ATOM      7  C   UNL     1      -3.739   2.783 -28.973  1.00  0.00    -0.014 C 
ATOM      8  C   UNL     1      -2.840   3.733 -28.168  1.00  0.00     0.007 C 
ATOM      9  C   UNL     1      -5.135   3.410 -29.078  1.00  0.00     0.007 C 
ENDBRANCH   1   7
BRANCH   4  10
ATOM     10  O   UNL     1      -2.852  -0.875 -31.865  1.00  0.00    -0.393 OA
ATOM     11  H   UNL     1      -3.398  -0.282 -32.410  1.00  0.00     0.210 HD
ENDBRANCH   4  10
TORSDOF 2
ENDMDL
MODEL 7
REMARK VINA RESULT:      -5.3     14.713     16.331
REMARK SMILES CC(C)[C@H]1CC[C@@H](O)CC1
REMARK SMILES IDX 4 1 5 2 6 3 7 4 9 5 10 6 2 7 1 8 3 9 8 10
REMARK H PARENT 8 11
ROOT
ATOM      1  C   UNL     1      -3.564  -1.404 -28.280  1.00  0.00    -0.008 C 
ATOM      2  C   UNL     1      -3.605  -1.563 -29.816  1.00  0.00     0.006 C 
ATOM      3  C   UNL     1      -4.946  -1.141 -30.412  1.00  0.00     0.032 C 
ATOM      4  C   UNL     1      -6.107  -1.901 -29.772  1.00  0.00     0.114 C 
ATOM      5  C   UNL     1      -6.084  -1.817 -28.246  1.00  0.00     0.032 C 
ATOM      6  C   UNL     1      -4.725  -2.228 -27.684  1.00  0.00     0.006 C 
ENDROOT
BRANCH   1   7
ATOM      7  C   UNL     1      -3.553   0.084 -27.810  1.00  0.00    -0.014 C 
ATOM      8  C   UNL     1      -2.188   0.749 -28.037  1.00  0.00     0.007 C 
ATOM      9  C   UNL     1      -3.918   0.223 -26.326  1.00  0.00     0.007 C 
ENDBRANCH   1   7
BRANCH   4  10
ATOM     10  O   UNL     1      -7.342  -1.388 -30.260  1.00  0.00    -0.393 OA
ATOM     11  H   UNL     1      -7.853  -2.132 -30.622  1.00  0.00     0.210 HD
ENDBRANCH   4  10
TORSDOF 2
ENDMDL
MODEL 8
REMARK VINA RESULT:      -5.3     14.327     16.258
REMARK SMILES CC(C)[C@H]1CC[C@@H](O)CC1
REMARK SMILES IDX 4 1 5 2 6 3 7 4 9 5 10 6 2 7 1 8 3 9 8 10
REMARK H PARENT 8 11
ROOT
ATOM      1  C   UNL     1      -3.584  -0.323 -29.535  1.00  0.00    -0.008 C 
ATOM      2  C   UNL     1      -4.949  -0.360 -30.257  1.00  0.00     0.006 C 
ATOM      3  C   UNL     1      -6.094  -0.756 -29.327  1.00  0.00     0.032 C 
ATOM      4  C   UNL     1      -5.822  -2.095 -28.642  1.00  0.00     0.114 C 
ATOM      5  C   UNL     1      -4.457  -2.128 -27.953  1.00  0.00     0.032 C 
ATOM      6  C   UNL     1      -3.339  -1.711 -28.906  1.00  0.00     0.006 C 
ENDROOT
BRANCH   1   7
ATOM      7  C   UNL     1      -3.453   0.853 -28.517  1.00  0.00    -0.014 C 
ATOM      8  C   UNL     1      -3.783   2.208 -29.158  1.00  0.00     0.007 C 
ATOM      9  C   UNL     1      -2.046   0.935 -27.911  1.00  0.00     0.007 C 
ENDBRANCH   1   7
BRANCH   4  10
ATOM     10  O   UNL     1      -6.845  -2.362 -27.690  1.00  0.00    -0.393 OA
ATOM     11  H   UNL     1      -6.940  -1.577 -27.124  1.00  0.00     0.210 HD
ENDBRANCH   4  10
TORSDOF 2
ENDMDL
MODEL 9
REMARK VINA RESULT:      -5.3     14.392     15.598
REMARK SMILES CC(C)[C@H]1CC[C@@H](O)CC1
REMARK SMILES IDX 4 1 5 2 6 3 7 4 9 5 10 6 2 7 1 8 3 9 8 10
REMARK H PARENT 8 11
ROOT
ATOM      1  C   UNL     1      -3.153  -0.153 -28.858  1.00  0.00    -0.008 C 
ATOM      2  C   UNL     1      -3.395  -1.677 -28.794  1.00  0.00     0.006 C 
ATOM      3  C   UNL     1      -4.683  -2.034 -28.056  1.00  0.00     0.032 C 
ATOM      4  C   UNL     1      -4.707  -1.437 -26.650  1.00  0.00     0.114 C 
ATOM      5  C   UNL     1      -4.422   0.065 -26.653  1.00  0.00     0.032 C 
ATOM      6  C   UNL     1      -3.138   0.389 -27.413  1.00  0.00     0.006 C 
ENDROOT
BRANCH   1   7
ATOM      7  C   UNL     1      -4.153   0.596 -29.792  1.00  0.00    -0.014 C 
ATOM      8  C   UNL     1      -3.927   0.253 -31.271  1.00  0.00     0.007 C 
ATOM      9  C   UNL     1      -4.063   2.119 -29.630  1.00  0.00     0.007 C 
ENDBRANCH   1   7
BRANCH   4  10
ATOM     10  O   UNL     1      -5.973  -1.682 -26.047  1.00  0.00    -0.393 OA
ATOM     11  H   UNL     1      -6.494  -0.862 -26.101  1.00  0.00     0.210 HD
ENDBRANCH   4  10
TORSDOF 2
ENDMDL
MODEL 10
REMARK VINA RESULT:      -5.2     14.835     15.937
REMARK SMILES CC(C)[C@H]1CC[C@@H](O)CC1
REMARK SMILES IDX 4 1 5 2 6 3 7 4 9 5 10 6 2 7 1 8 3 9 8 10
REMARK H PARENT 8 11
ROOT
ATOM      1  C   UNL     1      -3.360  -1.095 -28.106  1.00  0.00    -0.008 C 
ATOM      2  C   UNL     1      -2.500   0.168 -28.331  1.00  0.00     0.006 C 
ATOM      3  C   UNL     1      -3.042   1.053 -29.452  1.00  0.00     0.032 C 
ATOM      4  C   UNL     1      -3.189   0.275 -30.759  1.00  0.00     0.114 C 
ATOM      5  C   UNL     1      -3.992  -1.014 -30.579  1.00  0.00     0.032 C 
ATOM      6  C   UNL     1      -3.434  -1.866 -29.441  1.00  0.00     0.006 C 
ENDROOT
BRANCH   1   7
ATOM      7  C   UNL     1      -4.759  -0.791 -27.486  1.00  0.00    -0.014 C 
ATOM      8  C   UNL     1      -4.645  -0.175 -26.084  1.00  0.00     0.007 C 
ATOM      9  C   UNL     1      -5.633  -2.049 -27.392  1.00  0.00     0.007 C 
ENDBRANCH   1   7
BRANCH   4  10
ATOM     10  O   UNL     1      -3.817   1.097 -31.737  1.00  0.00    -0.393 OA
ATOM     11  H   UNL     1      -4.662   1.408 -31.369  1.00  0.00     0.210 HD
ENDBRANCH   4  10
TORSDOF 2
ENDMDL
