MODEL 1
REMARK VINA RESULT:      -7.8      0.000      0.000
REMARK SMILES CC(C)=CCC(C)=CC[C@@H](C)O
REMARK SMILES IDX 6 1 7 2 8 3 5 4 4 5 2 6 1 7 3 8 9 9 10 10 11 11 12 12
REMARK H PARENT 12 13
ROOT
ATOM      1  C   UNL     1       4.111  -1.488 -24.494  1.00  0.00    -0.073 C 
ATOM      2  C   UNL     1       2.645  -1.358 -24.169  1.00  0.00     0.039 C 
ATOM      3  C   UNL     1       5.060  -1.892 -23.624  1.00  0.00    -0.025 C 
ENDROOT
BRANCH   1   4
ATOM      4  C   UNL     1       4.476  -1.147 -25.927  1.00  0.00     0.057 C 
BRANCH   4   5
ATOM      5  C   UNL     1       5.542  -0.087 -25.991  1.00  0.00    -0.024 C 
ATOM      6  C   UNL     1       6.119   0.456 -27.083  1.00  0.00    -0.080 C 
ATOM      7  C   UNL     1       7.188   1.508 -26.941  1.00  0.00     0.039 C 
ATOM      8  C   UNL     1       5.785   0.108 -28.507  1.00  0.00     0.039 C 
ENDBRANCH   4   5
ENDBRANCH   1   4
BRANCH   3   9
ATOM      9  C   UNL     1       4.885  -2.307 -22.183  1.00  0.00     0.058 C 
BRANCH   9  10
ATOM     10  C   UNL     1       6.198  -2.388 -21.384  1.00  0.00     0.115 C 
ATOM     11  C   UNL     1       6.251  -1.454 -20.181  1.00  0.00     0.038 C 
BRANCH  10  12
ATOM     12  O   UNL     1       6.436  -3.725 -20.945  1.00  0.00    -0.393 OA
ATOM     13  H   UNL     1       6.069  -4.320 -21.624  1.00  0.00     0.210 HD
ENDBRANCH  10  12
ENDBRANCH   9  10
ENDBRANCH   3   9
TORSDOF 5
ENDMDL
MODEL 2
REMARK VINA RESULT:      -7.7      2.305      5.812
REMARK SMILES CC(C)=CCC(C)=CC[C@@H](C)O
REMARK SMILES IDX 6 1 7 2 8 3 5 4 4 5 2 6 1 7 3 8 9 9 10 10 11 11 12 12
REMARK H PARENT 12 13
ROOT
ATOM      1  C   UNL     1       4.290  -1.683 -24.019  1.00  0.00    -0.073 C 
ATOM      2  C   UNL     1       2.796  -1.490 -24.086  1.00  0.00     0.039 C 
ATOM      3  C   UNL     1       5.177  -1.139 -24.878  1.00  0.00    -0.025 C 
ENDROOT
BRANCH   1   4
ATOM      4  C   UNL     1       4.767  -2.544 -22.863  1.00  0.00     0.057 C 
BRANCH   4   5
ATOM      5  C   UNL     1       5.534  -1.739 -21.850  1.00  0.00    -0.024 C 
ATOM      6  C   UNL     1       6.072  -2.153 -20.685  1.00  0.00    -0.080 C 
ATOM      7  C   UNL     1       6.801  -1.184 -19.791  1.00  0.00     0.039 C 
ATOM      8  C   UNL     1       6.026  -3.560 -20.156  1.00  0.00     0.039 C 
ENDBRANCH   4   5
ENDBRANCH   1   4
BRANCH   3   9
ATOM      9  C   UNL     1       4.898  -0.232 -26.053  1.00  0.00     0.058 C 
BRANCH   9  10
ATOM     10  C   UNL     1       6.144   0.136 -26.878  1.00  0.00     0.115 C 
ATOM     11  C   UNL     1       5.889   0.232 -28.377  1.00  0.00     0.038 C 
BRANCH  10  12
ATOM     12  O   UNL     1       6.702   1.367 -26.421  1.00  0.00    -0.393 OA
ATOM     13  H   UNL     1       7.584   1.452 -26.828  1.00  0.00     0.210 HD
ENDBRANCH  10  12
ENDBRANCH   9  10
ENDBRANCH   3   9
TORSDOF 5
ENDMDL
MODEL 3
REMARK VINA RESULT:      -7.6      2.460      6.379
REMARK SMILES CC(C)=CCC(C)=CC[C@@H](C)O
REMARK SMILES IDX 6 1 7 2 8 3 5 4 4 5 2 6 1 7 3 8 9 9 10 10 11 11 12 12
REMARK H PARENT 12 13
ROOT
ATOM      1  C   UNL     1       5.490  -2.433 -22.075  1.00  0.00    -0.073 C 
ATOM      2  C   UNL     1       4.552  -3.522 -21.623  1.00  0.00     0.039 C 
ATOM      3  C   UNL     1       5.350  -1.716 -23.210  1.00  0.00    -0.025 C 
ENDROOT
BRANCH   1   4
ATOM      4  C   UNL     1       6.644  -2.155 -21.128  1.00  0.00     0.057 C 
BRANCH   4   5
ATOM      5  C   UNL     1       6.179  -2.051 -19.701  1.00  0.00    -0.024 C 
ATOM      6  C   UNL     1       6.762  -1.396 -18.677  1.00  0.00    -0.080 C 
ATOM      7  C   UNL     1       6.143  -1.419 -17.303  1.00  0.00     0.039 C 
ATOM      8  C   UNL     1       8.030  -0.593 -18.765  1.00  0.00     0.039 C 
ENDBRANCH   4   5
ENDBRANCH   1   4
BRANCH   3   9
ATOM      9  C   UNL     1       4.256  -1.819 -24.245  1.00  0.00     0.058 C 
BRANCH   9  10
ATOM     10  C   UNL     1       4.081  -0.557 -25.109  1.00  0.00     0.115 C 
ATOM     11  C   UNL     1       4.603  -0.702 -26.533  1.00  0.00     0.038 C 
BRANCH  10  12
ATOM     12  O   UNL     1       2.708  -0.167 -25.154  1.00  0.00    -0.393 OA
ATOM     13  H   UNL     1       2.591   0.550 -24.505  1.00  0.00     0.210 HD
ENDBRANCH  10  12
ENDBRANCH   9  10
ENDBRANCH   3   9
TORSDOF 5
ENDMDL
MODEL 4
REMARK VINA RESULT:      -7.1      2.455      4.642
REMARK SMILES CC(C)=CCC(C)=CC[C@@H](C)O
REMARK SMILES IDX 6 1 7 2 8 3 5 4 4 5 2 6 1 7 3 8 9 9 10 10 11 11 12 12
REMARK H PARENT 12 13
ROOT
ATOM      1  C   UNL     1       6.384  -2.345 -20.638  1.00  0.00    -0.073 C 
ATOM      2  C   UNL     1       7.470  -3.389 -20.703  1.00  0.00     0.039 C 
ATOM      3  C   UNL     1       6.397  -1.268 -19.825  1.00  0.00    -0.025 C 
ENDROOT
BRANCH   1   4
ATOM      4  C   UNL     1       5.229  -2.570 -21.598  1.00  0.00     0.057 C 
BRANCH   4   5
ATOM      5  C   UNL     1       5.495  -1.949 -22.942  1.00  0.00    -0.024 C 
ATOM      6  C   UNL     1       4.607  -1.607 -23.897  1.00  0.00    -0.080 C 
ATOM      7  C   UNL     1       5.073  -1.001 -25.195  1.00  0.00     0.039 C 
ATOM      8  C   UNL     1       3.115  -1.770 -23.796  1.00  0.00     0.039 C 
ENDBRANCH   4   5
ENDBRANCH   1   4
BRANCH   3   9
ATOM      9  C   UNL     1       7.467  -0.859 -18.841  1.00  0.00     0.058 C 
BRANCH   9  10
ATOM     10  C   UNL     1       6.952  -0.620 -17.410  1.00  0.00     0.115 C 
ATOM     11  C   UNL     1       6.152  -1.783 -16.837  1.00  0.00     0.038 C 
BRANCH  10  12
ATOM     12  O   UNL     1       8.036  -0.323 -16.531  1.00  0.00    -0.393 OA
ATOM     13  H   UNL     1       7.867  -0.797 -15.696  1.00  0.00     0.210 HD
ENDBRANCH  10  12
ENDBRANCH   9  10
ENDBRANCH   3   9
TORSDOF 5
ENDMDL
MODEL 5
REMARK VINA RESULT:      -6.9      3.268      5.977
REMARK SMILES CC(C)=CCC(C)=CC[C@@H](C)O
REMARK SMILES IDX 6 1 7 2 8 3 5 4 4 5 2 6 1 7 3 8 9 9 10 10 11 11 12 12
REMARK H PARENT 12 13
ROOT
ATOM      1  C   UNL     1       6.597  -1.878 -18.849  1.00  0.00    -0.073 C 
ATOM      2  C   UNL     1       5.798  -2.051 -17.583  1.00  0.00     0.039 C 
ATOM      3  C   UNL     1       7.588  -0.978 -19.018  1.00  0.00    -0.025 C 
ENDROOT
BRANCH   1   4
ATOM      4  C   UNL     1       6.224  -2.831 -19.970  1.00  0.00     0.057 C 
BRANCH   4   5
ATOM      5  C   UNL     1       6.059  -2.109 -21.281  1.00  0.00    -0.024 C 
ATOM      6  C   UNL     1       5.204  -2.385 -22.286  1.00  0.00    -0.080 C 
ATOM      7  C   UNL     1       5.197  -1.545 -23.537  1.00  0.00     0.039 C 
ATOM      8  C   UNL     1       4.194  -3.500 -22.289  1.00  0.00     0.039 C 
ENDBRANCH   4   5
ENDBRANCH   1   4
BRANCH   3   9
ATOM      9  C   UNL     1       8.122   0.017 -18.015  1.00  0.00     0.058 C 
BRANCH   9  10
ATOM     10  C   UNL     1       9.227  -0.539 -17.100  1.00  0.00     0.115 C 
ATOM     11  C   UNL     1       9.947   0.525 -16.280  1.00  0.00     0.038 C 
BRANCH  10  12
ATOM     12  O   UNL     1       8.697  -1.527 -16.217  1.00  0.00    -0.393 OA
ATOM     13  H   UNL     1       9.234  -1.503 -15.403  1.00  0.00     0.210 HD
ENDBRANCH  10  12
ENDBRANCH   9  10
ENDBRANCH   3   9
TORSDOF 5
ENDMDL
MODEL 6
REMARK VINA RESULT:      -6.4      2.602      6.713
REMARK SMILES CC(C)=CCC(C)=CC[C@@H](C)O
REMARK SMILES IDX 6 1 7 2 8 3 5 4 4 5 2 6 1 7 3 8 9 9 10 10 11 11 12 12
REMARK H PARENT 12 13
ROOT
ATOM      1  C   UNL     1       6.549  -2.643 -20.146  1.00  0.00    -0.073 C 
ATOM      2  C   UNL     1       7.848  -3.223 -20.643  1.00  0.00     0.039 C 
ATOM      3  C   UNL     1       5.648  -1.997 -20.915  1.00  0.00    -0.025 C 
ENDROOT
BRANCH   1   4
ATOM      4  C   UNL     1       6.285  -2.855 -18.665  1.00  0.00     0.057 C 
BRANCH   4   5
ATOM      5  C   UNL     1       6.287  -1.554 -17.909  1.00  0.00    -0.024 C 
ATOM      6  C   UNL     1       7.271  -0.636 -17.826  1.00  0.00    -0.080 C 
ATOM      7  C   UNL     1       7.087   0.610 -17.000  1.00  0.00     0.039 C 
ATOM      8  C   UNL     1       8.605  -0.725 -18.514  1.00  0.00     0.039 C 
ENDBRANCH   4   5
ENDBRANCH   1   4
BRANCH   3   9
ATOM      9  C   UNL     1       5.716  -1.727 -22.399  1.00  0.00     0.058 C 
BRANCH   9  10
ATOM     10  C   UNL     1       4.422  -2.060 -23.162  1.00  0.00     0.115 C 
ATOM     11  C   UNL     1       4.468  -1.709 -24.644  1.00  0.00     0.038 C 
BRANCH  10  12
ATOM     12  O   UNL     1       4.100  -3.444 -23.022  1.00  0.00    -0.393 OA
ATOM     13  H   UNL     1       3.196  -3.565 -23.368  1.00  0.00     0.210 HD
ENDBRANCH  10  12
ENDBRANCH   9  10
ENDBRANCH   3   9
TORSDOF 5
ENDMDL
MODEL 7
REMARK VINA RESULT:      -6.1      4.731      8.801
REMARK SMILES CC(C)=CCC(C)=CC[C@@H](C)O
REMARK SMILES IDX 6 1 7 2 8 3 5 4 4 5 2 6 1 7 3 8 9 9 10 10 11 11 12 12
REMARK H PARENT 12 13
ROOT
ATOM      1  C   UNL     1       8.140  -0.313 -17.613  1.00  0.00    -0.073 C 
ATOM      2  C   UNL     1       7.288   0.872 -17.236  1.00  0.00     0.039 C 
ATOM      3  C   UNL     1       7.828  -1.216 -18.565  1.00  0.00    -0.025 C 
ENDROOT
BRANCH   1   4
ATOM      4  C   UNL     1       9.444  -0.427 -16.842  1.00  0.00     0.057 C 
BRANCH   4   5
ATOM      5  C   UNL     1       9.799   0.864 -16.156  1.00  0.00    -0.024 C 
ATOM      6  C   UNL     1      11.008   1.278 -15.725  1.00  0.00    -0.080 C 
ATOM      7  C   UNL     1      11.161   2.613 -15.043  1.00  0.00     0.039 C 
ATOM      8  C   UNL     1      12.292   0.510 -15.867  1.00  0.00     0.039 C 
ENDBRANCH   4   5
ENDBRANCH   1   4
BRANCH   3   9
ATOM      9  C   UNL     1       6.609  -1.245 -19.455  1.00  0.00     0.058 C 
BRANCH   9  10
ATOM     10  C   UNL     1       6.352  -2.602 -20.134  1.00  0.00     0.115 C 
ATOM     11  C   UNL     1       5.599  -2.504 -21.454  1.00  0.00     0.038 C 
BRANCH  10  12
ATOM     12  O   UNL     1       7.582  -3.294 -20.350  1.00  0.00    -0.393 OA
ATOM     13  H   UNL     1       8.285  -2.770 -19.925  1.00  0.00     0.210 HD
ENDBRANCH  10  12
ENDBRANCH   9  10
ENDBRANCH   3   9
TORSDOF 5
ENDMDL
MODEL 8
REMARK VINA RESULT:      -6.0     10.995     12.930
REMARK SMILES CC(C)=CCC(C)=CC[C@@H](C)O
REMARK SMILES IDX 6 1 7 2 8 3 5 4 4 5 2 6 1 7 3 8 9 9 10 10 11 11 12 12
REMARK H PARENT 12 13
ROOT
ATOM      1  C   UNL     1      -1.515  -9.902 -27.010  1.00  0.00    -0.073 C 
ATOM      2  C   UNL     1      -1.231  -8.588 -26.329  1.00  0.00     0.039 C 
ATOM      3  C   UNL     1      -2.643 -10.189 -27.693  1.00  0.00    -0.025 C 
ENDROOT
BRANCH   1   4
ATOM      4  C   UNL     1      -0.400 -10.927 -26.901  1.00  0.00     0.057 C 
BRANCH   4   5
ATOM      5  C   UNL     1       0.520 -10.628 -25.749  1.00  0.00    -0.024 C 
ATOM      6  C   UNL     1       1.067 -11.490 -24.868  1.00  0.00    -0.080 C 
ATOM      7  C   UNL     1       1.963 -10.991 -23.764  1.00  0.00     0.039 C 
ATOM      8  C   UNL     1       0.873 -12.981 -24.875  1.00  0.00     0.039 C 
ENDBRANCH   4   5
ENDBRANCH   1   4
BRANCH   3   9
ATOM      9  C   UNL     1      -3.833  -9.294 -27.940  1.00  0.00     0.058 C 
BRANCH   9  10
ATOM     10  C   UNL     1      -5.163  -9.845 -27.398  1.00  0.00     0.115 C 
ATOM     11  C   UNL     1      -5.012 -11.086 -26.526  1.00  0.00     0.038 C 
BRANCH  10  12
ATOM     12  O   UNL     1      -5.859  -8.840 -26.661  1.00  0.00    -0.393 OA
ATOM     13  H   UNL     1      -5.431  -7.988 -26.863  1.00  0.00     0.210 HD
ENDBRANCH  10  12
ENDBRANCH   9  10
ENDBRANCH   3   9
TORSDOF 5
ENDMDL
MODEL 9
REMARK VINA RESULT:      -5.9      5.641      9.685
REMARK SMILES CC(C)=CCC(C)=CC[C@@H](C)O
REMARK SMILES IDX 6 1 7 2 8 3 5 4 4 5 2 6 1 7 3 8 9 9 10 10 11 11 12 12
REMARK H PARENT 12 13
ROOT
ATOM      1  C   UNL     1       8.999  -0.048 -16.320  1.00  0.00    -0.073 C 
ATOM      2  C   UNL     1       8.984  -1.358 -15.574  1.00  0.00     0.039 C 
ATOM      3  C   UNL     1       8.718   0.095 -17.632  1.00  0.00    -0.025 C 
ENDROOT
BRANCH   1   4
ATOM      4  C   UNL     1       9.341   1.162 -15.469  1.00  0.00     0.057 C 
BRANCH   4   5
ATOM      5  C   UNL     1      10.640   1.791 -15.896  1.00  0.00    -0.024 C 
ATOM      6  C   UNL     1      11.896   1.393 -15.611  1.00  0.00    -0.080 C 
ATOM      7  C   UNL     1      13.080   2.169 -16.125  1.00  0.00     0.039 C 
ATOM      8  C   UNL     1      12.262   0.185 -14.794  1.00  0.00     0.039 C 
ENDBRANCH   4   5
ENDBRANCH   1   4
BRANCH   3   9
ATOM      9  C   UNL     1       8.322  -0.975 -18.620  1.00  0.00     0.058 C 
BRANCH   9  10
ATOM     10  C   UNL     1       6.808  -1.243 -18.690  1.00  0.00     0.115 C 
ATOM     11  C   UNL     1       6.314  -1.656 -20.071  1.00  0.00     0.038 C 
BRANCH  10  12
ATOM     12  O   UNL     1       6.433  -2.244 -17.743  1.00  0.00    -0.393 OA
ATOM     13  H   UNL     1       6.119  -1.781 -16.945  1.00  0.00     0.210 HD
ENDBRANCH  10  12
ENDBRANCH   9  10
ENDBRANCH   3   9
TORSDOF 5
ENDMDL
MODEL 10
REMARK VINA RESULT:      -5.8      6.466      9.724
REMARK SMILES CC(C)=CCC(C)=CC[C@@H](C)O
REMARK SMILES IDX 6 1 7 2 8 3 5 4 4 5 2 6 1 7 3 8 9 9 10 10 11 11 12 12
REMARK H PARENT 12 13
ROOT
ATOM      1  C   UNL     1       9.208   0.410 -16.119  1.00  0.00    -0.073 C 
ATOM      2  C   UNL     1       9.388  -1.004 -15.629  1.00  0.00     0.039 C 
ATOM      3  C   UNL     1      10.157   1.369 -16.072  1.00  0.00    -0.025 C 
ENDROOT
BRANCH   1   4
ATOM      4  C   UNL     1       7.845   0.706 -16.718  1.00  0.00     0.057 C 
BRANCH   4   5
ATOM      5  C   UNL     1       7.645  -0.011 -18.026  1.00  0.00    -0.024 C 
ATOM      6  C   UNL     1       6.894  -1.102 -18.275  1.00  0.00    -0.080 C 
ATOM      7  C   UNL     1       6.830  -1.687 -19.663  1.00  0.00     0.039 C 
ATOM      8  C   UNL     1       6.060  -1.836 -17.261  1.00  0.00     0.039 C 
ENDBRANCH   4   5
ENDBRANCH   1   4
BRANCH   3   9
ATOM      9  C   UNL     1      11.570   1.254 -15.554  1.00  0.00     0.058 C 
BRANCH   9  10
ATOM     10  C   UNL     1      12.406   2.538 -15.704  1.00  0.00     0.115 C 
ATOM     11  C   UNL     1      13.579   2.406 -16.666  1.00  0.00     0.038 C 
BRANCH  10  12
ATOM     12  O   UNL     1      11.582   3.626 -16.121  1.00  0.00    -0.393 OA
ATOM     13  H   UNL     1      11.098   3.332 -16.915  1.00  0.00     0.210 HD
ENDBRANCH  10  12
ENDBRANCH   9  10
ENDBRANCH   3   9
TORSDOF 5
ENDMDL
