MODEL 1
REMARK VINA RESULT:      -5.8      0.000      0.000
REMARK SMILES Nc1ccccc1C(=O)O
REMARK SMILES IDX 2 1 3 2 4 3 5 4 6 5 7 6 1 7 8 10 9 11 10 12
REMARK H PARENT 1 8 1 9 10 13
ROOT
ATOM      1  C   UNL     1      -1.701 -10.628 -27.639  1.00  0.00     0.046 A 
ATOM      2  C   UNL     1      -3.074 -10.652 -27.925  1.00  0.00     0.026 A 
ATOM      3  C   UNL     1      -3.894  -9.572 -27.586  1.00  0.00     0.002 A 
ATOM      4  C   UNL     1      -3.350  -8.438 -26.992  1.00  0.00     0.001 A 
ATOM      5  C   UNL     1      -1.977  -8.367 -26.765  1.00  0.00     0.018 A 
ATOM      6  C   UNL     1      -1.146  -9.442 -27.119  1.00  0.00     0.082 A 
ENDROOT
BRANCH   1   7
ATOM      7  N   UNL     1      -0.897 -11.718 -28.054  1.00  0.00    -0.398 N 
ATOM      8  H   UNL     1      -0.272 -12.038 -27.314  1.00  0.00     0.156 HD
ATOM      9  H   UNL     1      -0.335 -11.478 -28.877  1.00  0.00     0.156 HD
ENDBRANCH   1   7
BRANCH   6  10
ATOM     10  C   UNL     1       0.317  -9.249 -26.938  1.00  0.00     0.337 C 
ATOM     11  O   UNL     1       0.957  -8.389 -27.517  1.00  0.00    -0.246 OA
BRANCH  10  12
ATOM     12  O   UNL     1       0.879 -10.160 -26.111  1.00  0.00    -0.478 OA
ATOM     13  H   UNL     1       1.757  -9.865 -25.778  1.00  0.00     0.297 HD
ENDBRANCH  10  12
ENDBRANCH   6  10
TORSDOF 3
ENDMDL
MODEL 2
REMARK VINA RESULT:      -5.5     13.965     15.292
REMARK SMILES Nc1ccccc1C(=O)O
REMARK SMILES IDX 2 1 3 2 4 3 5 4 6 5 7 6 1 7 8 10 9 11 10 12
REMARK H PARENT 1 8 1 9 10 13
ROOT
ATOM      1  C   UNL     1       6.616  -1.460 -17.272  1.00  0.00     0.046 A 
ATOM      2  C   UNL     1       7.053  -0.551 -16.298  1.00  0.00     0.026 A 
ATOM      3  C   UNL     1       8.051   0.384 -16.588  1.00  0.00     0.002 A 
ATOM      4  C   UNL     1       8.599   0.451 -17.865  1.00  0.00     0.001 A 
ATOM      5  C   UNL     1       8.126  -0.396 -18.866  1.00  0.00     0.018 A 
ATOM      6  C   UNL     1       7.113  -1.325 -18.584  1.00  0.00     0.082 A 
ENDROOT
BRANCH   1   7
ATOM      7  N   UNL     1       5.561  -2.349 -16.953  1.00  0.00    -0.398 N 
ATOM      8  H   UNL     1       5.858  -3.325 -16.987  1.00  0.00     0.156 HD
ATOM      9  H   UNL     1       4.763  -2.228 -17.585  1.00  0.00     0.156 HD
ENDBRANCH   1   7
BRANCH   6  10
ATOM     10  C   UNL     1       6.593  -2.122 -19.727  1.00  0.00     0.337 C 
ATOM     11  O   UNL     1       6.063  -1.624 -20.705  1.00  0.00    -0.246 OA
BRANCH  10  12
ATOM     12  O   UNL     1       6.716  -3.457 -19.549  1.00  0.00    -0.478 OA
ATOM     13  H   UNL     1       6.067  -3.963 -20.090  1.00  0.00     0.297 HD
ENDBRANCH  10  12
ENDBRANCH   6  10
TORSDOF 3
ENDMDL
MODEL 3
REMARK VINA RESULT:      -5.5      1.784      2.350
REMARK SMILES Nc1ccccc1C(=O)O
REMARK SMILES IDX 2 1 3 2 4 3 5 4 6 5 7 6 1 7 8 10 9 11 10 12
REMARK H PARENT 1 8 1 9 10 13
ROOT
ATOM      1  C   UNL     1      -1.103  -9.000 -27.438  1.00  0.00     0.046 A 
ATOM      2  C   UNL     1      -2.269  -8.353 -27.874  1.00  0.00     0.026 A 
ATOM      3  C   UNL     1      -3.477  -9.048 -27.979  1.00  0.00     0.002 A 
ATOM      4  C   UNL     1      -3.548 -10.389 -27.615  1.00  0.00     0.001 A 
ATOM      5  C   UNL     1      -2.418 -11.030 -27.112  1.00  0.00     0.018 A 
ATOM      6  C   UNL     1      -1.206 -10.332 -26.988  1.00  0.00     0.082 A 
ENDROOT
BRANCH   1   7
ATOM      7  N   UNL     1       0.084  -8.244 -27.290  1.00  0.00    -0.398 N 
ATOM      8  H   UNL     1       0.791  -8.498 -27.980  1.00  0.00     0.156 HD
ATOM      9  H   UNL     1       0.486  -8.356 -26.353  1.00  0.00     0.156 HD
ENDBRANCH   1   7
BRANCH   6  10
ATOM     10  C   UNL     1      -0.075 -11.055 -26.350  1.00  0.00     0.337 C 
ATOM     11  O   UNL     1       0.381 -12.101 -26.780  1.00  0.00    -0.246 OA
BRANCH  10  12
ATOM     12  O   UNL     1       0.362 -10.468 -25.212  1.00  0.00    -0.478 OA
ATOM     13  H   UNL     1       0.306  -9.486 -25.258  1.00  0.00     0.297 HD
ENDBRANCH  10  12
ENDBRANCH   6  10
TORSDOF 3
ENDMDL
MODEL 4
REMARK VINA RESULT:      -5.4     12.841     13.971
REMARK SMILES Nc1ccccc1C(=O)O
REMARK SMILES IDX 2 1 3 2 4 3 5 4 6 5 7 6 1 7 8 10 9 11 10 12
REMARK H PARENT 1 8 1 9 10 13
ROOT
ATOM      1  C   UNL     1      -8.696  -0.670 -31.891  1.00  0.00     0.046 A 
ATOM      2  C   UNL     1      -7.361  -0.700 -31.463  1.00  0.00     0.026 A 
ATOM      3  C   UNL     1      -6.476   0.327 -31.804  1.00  0.00     0.002 A 
ATOM      4  C   UNL     1      -6.921   1.418 -32.545  1.00  0.00     0.001 A 
ATOM      5  C   UNL     1      -8.261   1.501 -32.917  1.00  0.00     0.018 A 
ATOM      6  C   UNL     1      -9.157   0.480 -32.564  1.00  0.00     0.082 A 
ENDROOT
BRANCH   1   7
ATOM      7  N   UNL     1      -9.572  -1.701 -31.473  1.00  0.00    -0.398 N 
ATOM      8  H   UNL     1      -9.486  -2.536 -32.052  1.00  0.00     0.156 HD
ATOM      9  H   UNL     1     -10.549  -1.391 -31.487  1.00  0.00     0.156 HD
ENDBRANCH   1   7
BRANCH   6  10
ATOM     10  C   UNL     1     -10.587   0.690 -32.911  1.00  0.00     0.337 C 
ATOM     11  O   UNL     1     -11.375  -0.222 -33.093  1.00  0.00    -0.246 OA
BRANCH  10  12
ATOM     12  O   UNL     1     -10.916   1.993 -33.061  1.00  0.00    -0.478 OA
ATOM     13  H   UNL     1     -10.455   2.569 -32.408  1.00  0.00     0.297 HD
ENDBRANCH  10  12
ENDBRANCH   6  10
TORSDOF 3
ENDMDL
MODEL 5
REMARK VINA RESULT:      -5.3      2.855      3.832
REMARK SMILES Nc1ccccc1C(=O)O
REMARK SMILES IDX 2 1 3 2 4 3 5 4 6 5 7 6 1 7 8 10 9 11 10 12
REMARK H PARENT 1 8 1 9 10 13
ROOT
ATOM      1  C   UNL     1       0.478 -10.541 -25.689  1.00  0.00     0.046 A 
ATOM      2  C   UNL     1      -0.310  -9.499 -26.199  1.00  0.00     0.026 A 
ATOM      3  C   UNL     1      -1.227  -9.732 -27.228  1.00  0.00     0.002 A 
ATOM      4  C   UNL     1      -1.398 -11.016 -27.737  1.00  0.00     0.001 A 
ATOM      5  C   UNL     1      -0.677 -12.077 -27.194  1.00  0.00     0.018 A 
ATOM      6  C   UNL     1       0.233 -11.851 -26.149  1.00  0.00     0.082 A 
ENDROOT
BRANCH   1   7
ATOM      7  N   UNL     1       1.350 -10.272 -24.607  1.00  0.00    -0.398 N 
ATOM      8  H   UNL     1       1.089 -10.789 -23.766  1.00  0.00     0.156 HD
ATOM      9  H   UNL     1       1.373  -9.272 -24.382  1.00  0.00     0.156 HD
ENDBRANCH   1   7
BRANCH   6  10
ATOM     10  C   UNL     1       0.889 -13.047 -25.557  1.00  0.00     0.337 C 
ATOM     11  O   UNL     1       0.647 -13.459 -24.436  1.00  0.00    -0.246 OA
BRANCH  10  12
ATOM     12  O   UNL     1       1.823 -13.600 -26.364  1.00  0.00    -0.478 OA
ATOM     13  H   UNL     1       1.420 -14.148 -27.076  1.00  0.00     0.297 HD
ENDBRANCH  10  12
ENDBRANCH   6  10
TORSDOF 3
ENDMDL
MODEL 6
REMARK VINA RESULT:      -5.2      9.063      9.976
REMARK SMILES Nc1ccccc1C(=O)O
REMARK SMILES IDX 2 1 3 2 4 3 5 4 6 5 7 6 1 7 8 10 9 11 10 12
REMARK H PARENT 1 8 1 9 10 13
ROOT
ATOM      1  C   UNL     1      -3.824   0.041 -26.875  1.00  0.00     0.046 A 
ATOM      2  C   UNL     1      -2.872   0.903 -27.439  1.00  0.00     0.026 A 
ATOM      3  C   UNL     1      -2.192   0.552 -28.608  1.00  0.00     0.002 A 
ATOM      4  C   UNL     1      -2.481  -0.646 -29.255  1.00  0.00     0.001 A 
ATOM      5  C   UNL     1      -3.475  -1.481 -28.750  1.00  0.00     0.018 A 
ATOM      6  C   UNL     1      -4.172  -1.126 -27.584  1.00  0.00     0.082 A 
ENDROOT
BRANCH   1   7
ATOM      7  N   UNL     1      -4.531   0.463 -25.723  1.00  0.00    -0.398 N 
ATOM      8  H   UNL     1      -4.858   1.426 -25.803  1.00  0.00     0.156 HD
ATOM      9  H   UNL     1      -3.955   0.382 -24.879  1.00  0.00     0.156 HD
ENDBRANCH   1   7
BRANCH   6  10
ATOM     10  C   UNL     1      -5.285  -2.019 -27.167  1.00  0.00     0.337 C 
ATOM     11  O   UNL     1      -6.102  -2.482 -27.944  1.00  0.00    -0.246 OA
BRANCH  10  12
ATOM     12  O   UNL     1      -5.336  -2.222 -25.831  1.00  0.00    -0.478 OA
ATOM     13  H   UNL     1      -5.060  -1.423 -25.324  1.00  0.00     0.297 HD
ENDBRANCH  10  12
ENDBRANCH   6  10
TORSDOF 3
ENDMDL
MODEL 7
REMARK VINA RESULT:      -5.2      2.779      3.895
REMARK SMILES Nc1ccccc1C(=O)O
REMARK SMILES IDX 2 1 3 2 4 3 5 4 6 5 7 6 1 7 8 10 9 11 10 12
REMARK H PARENT 1 8 1 9 10 13
ROOT
ATOM      1  C   UNL     1      -1.177  -9.601 -26.329  1.00  0.00     0.046 A 
ATOM      2  C   UNL     1      -0.004 -10.178 -25.822  1.00  0.00     0.026 A 
ATOM      3  C   UNL     1       0.389 -11.461 -26.211  1.00  0.00     0.002 A 
ATOM      4  C   UNL     1      -0.363 -12.173 -27.140  1.00  0.00     0.001 A 
ATOM      5  C   UNL     1      -1.493 -11.588 -27.709  1.00  0.00     0.018 A 
ATOM      6  C   UNL     1      -1.882 -10.293 -27.335  1.00  0.00     0.082 A 
ENDROOT
BRANCH   1   7
ATOM      7  N   UNL     1      -1.505  -8.275 -25.955  1.00  0.00    -0.398 N 
ATOM      8  H   UNL     1      -0.832  -7.597 -26.313  1.00  0.00     0.156 HD
ATOM      9  H   UNL     1      -1.558  -8.175 -24.936  1.00  0.00     0.156 HD
ENDBRANCH   1   7
BRANCH   6  10
ATOM     10  C   UNL     1      -3.038  -9.701 -28.059  1.00  0.00     0.337 C 
ATOM     11  O   UNL     1      -2.959  -8.692 -28.738  1.00  0.00    -0.246 OA
BRANCH  10  12
ATOM     12  O   UNL     1      -4.199 -10.362 -27.845  1.00  0.00    -0.478 OA
ATOM     13  H   UNL     1      -4.744  -9.934 -27.146  1.00  0.00     0.297 HD
ENDBRANCH  10  12
ENDBRANCH   6  10
TORSDOF 3
ENDMDL
MODEL 8
REMARK VINA RESULT:      -5.2     10.125     11.164
REMARK SMILES Nc1ccccc1C(=O)O
REMARK SMILES IDX 2 1 3 2 4 3 5 4 6 5 7 6 1 7 8 10 9 11 10 12
REMARK H PARENT 1 8 1 9 10 13
ROOT
ATOM      1  C   UNL     1      -4.006   1.348 -29.883  1.00  0.00     0.046 A 
ATOM      2  C   UNL     1      -3.723   2.418 -29.022  1.00  0.00     0.026 A 
ATOM      3  C   UNL     1      -2.782   2.284 -27.998  1.00  0.00     0.002 A 
ATOM      4  C   UNL     1      -2.082   1.091 -27.841  1.00  0.00     0.001 A 
ATOM      5  C   UNL     1      -2.297   0.041 -28.731  1.00  0.00     0.018 A 
ATOM      6  C   UNL     1      -3.229   0.177 -29.772  1.00  0.00     0.082 A 
ENDROOT
BRANCH   1   7
ATOM      7  N   UNL     1      -4.922   1.547 -30.944  1.00  0.00    -0.398 N 
ATOM      8  H   UNL     1      -5.196   0.669 -31.385  1.00  0.00     0.156 HD
ATOM      9  H   UNL     1      -4.534   2.167 -31.663  1.00  0.00     0.156 HD
ENDBRANCH   1   7
BRANCH   6  10
ATOM     10  C   UNL     1      -3.328  -0.949 -30.738  1.00  0.00     0.337 C 
ATOM     11  O   UNL     1      -3.771  -2.046 -30.446  1.00  0.00    -0.246 OA
BRANCH  10  12
ATOM     12  O   UNL     1      -2.825  -0.653 -31.958  1.00  0.00    -0.478 OA
ATOM     13  H   UNL     1      -1.860  -0.457 -31.922  1.00  0.00     0.297 HD
ENDBRANCH  10  12
ENDBRANCH   6  10
TORSDOF 3
ENDMDL
MODEL 9
REMARK VINA RESULT:      -5.0      9.601     10.647
REMARK SMILES Nc1ccccc1C(=O)O
REMARK SMILES IDX 2 1 3 2 4 3 5 4 6 5 7 6 1 7 8 10 9 11 10 12
REMARK H PARENT 1 8 1 9 10 13
ROOT
ATOM      1  C   UNL     1      -3.671   0.827 -28.960  1.00  0.00     0.046 A 
ATOM      2  C   UNL     1      -3.716   0.462 -27.607  1.00  0.00     0.026 A 
ATOM      3  C   UNL     1      -4.022  -0.849 -27.229  1.00  0.00     0.002 A 
ATOM      4  C   UNL     1      -4.249  -1.822 -28.197  1.00  0.00     0.001 A 
ATOM      5  C   UNL     1      -4.138  -1.495 -29.546  1.00  0.00     0.018 A 
ATOM      6  C   UNL     1      -3.815  -0.184 -29.931  1.00  0.00     0.082 A 
ENDROOT
BRANCH   1   7
ATOM      7  N   UNL     1      -3.298   2.151 -29.298  1.00  0.00    -0.398 N 
ATOM      8  H   UNL     1      -2.693   2.572 -28.593  1.00  0.00     0.156 HD
ATOM      9  H   UNL     1      -4.119   2.751 -29.425  1.00  0.00     0.156 HD
ENDBRANCH   1   7
BRANCH   6  10
ATOM     10  C   UNL     1      -3.616   0.062 -31.384  1.00  0.00     0.337 C 
ATOM     11  O   UNL     1      -4.172   0.957 -31.995  1.00  0.00    -0.246 OA
BRANCH  10  12
ATOM     12  O   UNL     1      -2.801  -0.843 -31.973  1.00  0.00    -0.478 OA
ATOM     13  H   UNL     1      -2.572  -0.589 -32.896  1.00  0.00     0.297 HD
ENDBRANCH  10  12
ENDBRANCH   6  10
TORSDOF 3
ENDMDL
MODEL 10
REMARK VINA RESULT:      -5.0      9.258     10.164
REMARK SMILES Nc1ccccc1C(=O)O
REMARK SMILES IDX 2 1 3 2 4 3 5 4 6 5 7 6 1 7 8 10 9 11 10 12
REMARK H PARENT 1 8 1 9 10 13
ROOT
ATOM      1  C   UNL     1      -4.541   0.626 -27.903  1.00  0.00     0.046 A 
ATOM      2  C   UNL     1      -5.694   0.014 -27.390  1.00  0.00     0.026 A 
ATOM      3  C   UNL     1      -5.825  -1.378 -27.390  1.00  0.00     0.002 A 
ATOM      4  C   UNL     1      -4.792  -2.179 -27.866  1.00  0.00     0.001 A 
ATOM      5  C   UNL     1      -3.611  -1.592 -28.313  1.00  0.00     0.018 A 
ATOM      6  C   UNL     1      -3.467  -0.195 -28.300  1.00  0.00     0.082 A 
ENDROOT
BRANCH   1   7
ATOM      7  N   UNL     1      -4.425   2.036 -27.828  1.00  0.00    -0.398 N 
ATOM      8  H   UNL     1      -5.332   2.499 -27.883  1.00  0.00     0.156 HD
ATOM      9  H   UNL     1      -3.824   2.403 -28.573  1.00  0.00     0.156 HD
ENDBRANCH   1   7
BRANCH   6  10
ATOM     10  C   UNL     1      -2.142   0.349 -28.697  1.00  0.00     0.337 C 
ATOM     11  O   UNL     1      -1.648   0.177 -29.798  1.00  0.00    -0.246 OA
BRANCH  10  12
ATOM     12  O   UNL     1      -1.512   1.006 -27.696  1.00  0.00    -0.478 OA
ATOM     13  H   UNL     1      -0.545   1.097 -27.864  1.00  0.00     0.297 HD
ENDBRANCH  10  12
ENDBRANCH   6  10
TORSDOF 3
ENDMDL
