MODEL 1
REMARK VINA RESULT:      -7.3      0.000      0.000
REMARK SMILES COC1=C[C@@H](C=CC(=O)O)C=C1
REMARK SMILES IDX 6 1 7 2 5 3 3 4 4 5 12 6 11 7 2 8 1 9 8 10 9 11 10 12
REMARK H PARENT 10 13
ROOT
ATOM      1  C   UNL     1       5.111  -1.995 -22.249  1.00  0.00    -0.008 C 
ATOM      2  C   UNL     1       5.790  -2.863 -21.480  1.00  0.00     0.090 C 
ENDROOT
BRANCH   1   3
ATOM      3  C   UNL     1       4.511  -2.251 -23.605  1.00  0.00     0.061 C 
ATOM      4  C   UNL     1       4.473  -0.730 -25.368  1.00  0.00     0.115 C 
ATOM      5  C   UNL     1       5.293  -1.553 -24.689  1.00  0.00     0.031 C 
ATOM      6  C   UNL     1       3.138  -0.813 -24.834  1.00  0.00     0.042 C 
ATOM      7  C   UNL     1       3.127  -1.686 -23.815  1.00  0.00    -0.011 C 
BRANCH   4   8
ATOM      8  O   UNL     1       4.687   0.105 -26.415  1.00  0.00    -0.497 OA
ATOM      9  C   UNL     1       6.042   0.231 -26.831  1.00  0.00     0.278 C 
ENDBRANCH   4   8
ENDBRANCH   1   3
BRANCH   2  10
ATOM     10  C   UNL     1       6.305  -2.428 -20.165  1.00  0.00     0.328 C 
ATOM     11  O   UNL     1       6.573  -1.275 -19.872  1.00  0.00    -0.247 OA
BRANCH  10  12
ATOM     12  O   UNL     1       6.448  -3.462 -19.312  1.00  0.00    -0.478 OA
ATOM     13  H   UNL     1       5.629  -3.947 -19.107  1.00  0.00     0.297 HD
ENDBRANCH  10  12
ENDBRANCH   2  10
TORSDOF 4
ENDMDL
MODEL 2
REMARK VINA RESULT:      -7.2     11.652     13.031
REMARK SMILES COC1=C[C@@H](C=CC(=O)O)C=C1
REMARK SMILES IDX 6 1 7 2 5 3 3 4 4 5 12 6 11 7 2 8 1 9 8 10 9 11 10 12
REMARK H PARENT 10 13
ROOT
ATOM      1  C   UNL     1      -3.399  -9.378 -27.314  1.00  0.00    -0.008 C 
ATOM      2  C   UNL     1      -4.266 -10.381 -27.095  1.00  0.00     0.090 C 
ENDROOT
BRANCH   1   3
ATOM      3  C   UNL     1      -1.976  -9.487 -27.794  1.00  0.00     0.061 C 
ATOM      4  C   UNL     1      -0.416 -11.039 -27.032  1.00  0.00     0.115 C 
ATOM      5  C   UNL     1      -1.512 -10.922 -27.804  1.00  0.00     0.031 C 
ATOM      6  C   UNL     1      -0.062  -9.757 -26.480  1.00  0.00     0.042 C 
ATOM      7  C   UNL     1      -0.944  -8.839 -26.903  1.00  0.00    -0.011 C 
BRANCH   4   8
ATOM      8  O   UNL     1       0.365 -12.103 -26.719  1.00  0.00    -0.497 OA
ATOM      9  C   UNL     1       0.768 -12.189 -25.357  1.00  0.00     0.278 C 
ENDBRANCH   4   8
ENDBRANCH   1   3
BRANCH   2  10
ATOM     10  C   UNL     1      -5.633 -10.077 -26.624  1.00  0.00     0.328 C 
ATOM     11  O   UNL     1      -6.016 -10.211 -25.475  1.00  0.00    -0.247 OA
BRANCH  10  12
ATOM     12  O   UNL     1      -6.421  -9.626 -27.620  1.00  0.00    -0.478 OA
ATOM     13  H   UNL     1      -6.003  -8.986 -28.224  1.00  0.00     0.297 HD
ENDBRANCH  10  12
ENDBRANCH   2  10
TORSDOF 4
ENDMDL
MODEL 3
REMARK VINA RESULT:      -6.8      2.085      5.998
REMARK SMILES COC1=C[C@@H](C=CC(=O)O)C=C1
REMARK SMILES IDX 6 1 7 2 5 3 3 4 4 5 12 6 11 7 2 8 1 9 8 10 9 11 10 12
REMARK H PARENT 10 13
ROOT
ATOM      1  C   UNL     1       5.541  -1.925 -21.828  1.00  0.00    -0.008 C 
ATOM      2  C   UNL     1       4.694  -2.529 -22.678  1.00  0.00     0.090 C 
ENDROOT
BRANCH   1   3
ATOM      3  C   UNL     1       6.083  -2.473 -20.535  1.00  0.00     0.061 C 
ATOM      4  C   UNL     1       7.538  -1.351 -19.104  1.00  0.00     0.115 C 
ATOM      5  C   UNL     1       6.255  -1.382 -19.508  1.00  0.00     0.031 C 
ATOM      6  C   UNL     1       8.293  -2.375 -19.778  1.00  0.00     0.042 C 
ATOM      7  C   UNL     1       7.480  -3.042 -20.612  1.00  0.00    -0.011 C 
BRANCH   4   8
ATOM      8  O   UNL     1       8.190  -0.565 -18.211  1.00  0.00    -0.497 OA
ATOM      9  C   UNL     1       7.358   0.195 -17.341  1.00  0.00     0.278 C 
ENDBRANCH   4   8
ENDBRANCH   1   3
BRANCH   2  10
ATOM     10  C   UNL     1       4.272  -1.830 -23.910  1.00  0.00     0.328 C 
ATOM     11  O   UNL     1       5.027  -1.468 -24.795  1.00  0.00    -0.247 OA
BRANCH  10  12
ATOM     12  O   UNL     1       2.938  -1.636 -23.948  1.00  0.00    -0.478 OA
ATOM     13  H   UNL     1       2.566  -1.482 -24.834  1.00  0.00     0.297 HD
ENDBRANCH  10  12
ENDBRANCH   2  10
TORSDOF 4
ENDMDL
MODEL 4
REMARK VINA RESULT:      -6.3      1.664      2.448
REMARK SMILES COC1=C[C@@H](C=CC(=O)O)C=C1
REMARK SMILES IDX 6 1 7 2 5 3 3 4 4 5 12 6 11 7 2 8 1 9 8 10 9 11 10 12
REMARK H PARENT 10 13
ROOT
ATOM      1  C   UNL     1       6.062  -1.654 -20.724  1.00  0.00    -0.008 C 
ATOM      2  C   UNL     1       6.872  -1.947 -19.693  1.00  0.00     0.090 C 
ENDROOT
BRANCH   1   3
ATOM      3  C   UNL     1       5.832  -2.471 -21.967  1.00  0.00     0.061 C 
ATOM      4  C   UNL     1       4.355  -1.923 -23.681  1.00  0.00     0.115 C 
ATOM      5  C   UNL     1       5.547  -1.588 -23.156  1.00  0.00     0.031 C 
ATOM      6  C   UNL     1       3.776  -3.013 -22.938  1.00  0.00     0.042 C 
ATOM      7  C   UNL     1       4.607  -3.353 -21.941  1.00  0.00    -0.011 C 
BRANCH   4   8
ATOM      8  O   UNL     1       3.659  -1.437 -24.740  1.00  0.00    -0.497 OA
ATOM      9  C   UNL     1       4.397  -0.607 -25.629  1.00  0.00     0.278 C 
ENDBRANCH   4   8
ENDBRANCH   1   3
BRANCH   2  10
ATOM     10  C   UNL     1       6.966  -1.017 -18.549  1.00  0.00     0.328 C 
ATOM     11  O   UNL     1       6.156  -0.951 -17.641  1.00  0.00    -0.247 OA
BRANCH  10  12
ATOM     12  O   UNL     1       8.065  -0.239 -18.620  1.00  0.00    -0.478 OA
ATOM     13  H   UNL     1       8.836  -0.647 -19.053  1.00  0.00     0.297 HD
ENDBRANCH  10  12
ENDBRANCH   2  10
TORSDOF 4
ENDMDL
MODEL 5
REMARK VINA RESULT:      -6.3     10.704     11.613
REMARK SMILES COC1=C[C@@H](C=CC(=O)O)C=C1
REMARK SMILES IDX 6 1 7 2 5 3 3 4 4 5 12 6 11 7 2 8 1 9 8 10 9 11 10 12
REMARK H PARENT 10 13
ROOT
ATOM      1  C   UNL     1       0.258 -10.653 -25.800  1.00  0.00    -0.008 C 
ATOM      2  C   UNL     1       0.503 -11.960 -25.604  1.00  0.00     0.090 C 
ENDROOT
BRANCH   1   3
ATOM      3  C   UNL     1      -0.374 -10.012 -27.006  1.00  0.00     0.061 C 
ATOM      4  C   UNL     1      -2.555  -9.204 -27.110  1.00  0.00     0.115 C 
ATOM      5  C   UNL     1      -1.340  -8.926 -26.603  1.00  0.00     0.031 C 
ATOM      6  C   UNL     1      -2.507 -10.427 -27.868  1.00  0.00     0.042 C 
ATOM      7  C   UNL     1      -1.258 -10.918 -27.828  1.00  0.00    -0.011 C 
BRANCH   4   8
ATOM      8  O   UNL     1      -3.742  -8.551 -27.035  1.00  0.00    -0.497 OA
ATOM      9  C   UNL     1      -4.898  -9.380 -27.016  1.00  0.00     0.278 C 
ENDBRANCH   4   8
ENDBRANCH   1   3
BRANCH   2  10
ATOM     10  C   UNL     1       1.133 -12.406 -24.344  1.00  0.00     0.328 C 
ATOM     11  O   UNL     1       0.949 -13.492 -23.823  1.00  0.00    -0.247 OA
BRANCH  10  12
ATOM     12  O   UNL     1       1.948 -11.465 -23.827  1.00  0.00    -0.478 OA
ATOM     13  H   UNL     1       1.901 -10.593 -24.257  1.00  0.00     0.297 HD
ENDBRANCH  10  12
ENDBRANCH   2  10
TORSDOF 4
ENDMDL
MODEL 6
REMARK VINA RESULT:      -6.2      2.528      6.207
REMARK SMILES COC1=C[C@@H](C=CC(=O)O)C=C1
REMARK SMILES IDX 6 1 7 2 5 3 3 4 4 5 12 6 11 7 2 8 1 9 8 10 9 11 10 12
REMARK H PARENT 10 13
ROOT
ATOM      1  C   UNL     1       5.922  -2.915 -20.993  1.00  0.00    -0.008 C 
ATOM      2  C   UNL     1       5.717  -1.910 -21.862  1.00  0.00     0.090 C 
ENDROOT
BRANCH   1   3
ATOM      3  C   UNL     1       6.711  -2.870 -19.712  1.00  0.00     0.061 C 
ATOM      4  C   UNL     1       6.890  -1.021 -18.309  1.00  0.00     0.115 C 
ATOM      5  C   UNL     1       6.038  -1.991 -18.688  1.00  0.00     0.031 C 
ATOM      6  C   UNL     1       8.145  -1.167 -18.999  1.00  0.00     0.042 C 
ATOM      7  C   UNL     1       8.074  -2.229 -19.817  1.00  0.00    -0.011 C 
BRANCH   4   8
ATOM      8  O   UNL     1       6.766   0.003 -17.427  1.00  0.00    -0.497 OA
ATOM      9  C   UNL     1       7.821   0.128 -16.481  1.00  0.00     0.278 C 
ENDBRANCH   4   8
ENDBRANCH   1   3
BRANCH   2  10
ATOM     10  C   UNL     1       4.905  -2.145 -23.074  1.00  0.00     0.328 C 
ATOM     11  O   UNL     1       5.014  -1.518 -24.113  1.00  0.00    -0.247 OA
BRANCH  10  12
ATOM     12  O   UNL     1       4.017  -3.144 -22.901  1.00  0.00    -0.478 OA
ATOM     13  H   UNL     1       4.184  -3.720 -22.134  1.00  0.00     0.297 HD
ENDBRANCH  10  12
ENDBRANCH   2  10
TORSDOF 4
ENDMDL
MODEL 7
REMARK VINA RESULT:      -6.0      3.870      7.507
REMARK SMILES COC1=C[C@@H](C=CC(=O)O)C=C1
REMARK SMILES IDX 6 1 7 2 5 3 3 4 4 5 12 6 11 7 2 8 1 9 8 10 9 11 10 12
REMARK H PARENT 10 13
ROOT
ATOM      1  C   UNL     1       6.717  -1.582 -18.933  1.00  0.00    -0.008 C 
ATOM      2  C   UNL     1       6.343  -1.356 -20.204  1.00  0.00     0.090 C 
ENDROOT
BRANCH   1   3
ATOM      3  C   UNL     1       7.097  -0.559 -17.896  1.00  0.00     0.061 C 
ATOM      4  C   UNL     1       9.173  -0.408 -16.853  1.00  0.00     0.115 C 
ATOM      5  C   UNL     1       8.548  -0.168 -18.021  1.00  0.00     0.031 C 
ATOM      6  C   UNL     1       8.240  -0.938 -15.893  1.00  0.00     0.042 C 
ATOM      7  C   UNL     1       7.030  -1.036 -16.465  1.00  0.00    -0.011 C 
BRANCH   4   8
ATOM      8  O   UNL     1      10.459  -0.231 -16.458  1.00  0.00    -0.497 OA
ATOM      9  C   UNL     1      10.719   0.965 -15.733  1.00  0.00     0.278 C 
ENDBRANCH   4   8
ENDBRANCH   1   3
BRANCH   2  10
ATOM     10  C   UNL     1       6.001  -2.496 -21.080  1.00  0.00     0.328 C 
ATOM     11  O   UNL     1       5.266  -2.430 -22.049  1.00  0.00    -0.247 OA
BRANCH  10  12
ATOM     12  O   UNL     1       6.603  -3.635 -20.682  1.00  0.00    -0.478 OA
ATOM     13  H   UNL     1       6.757  -3.712 -19.724  1.00  0.00     0.297 HD
ENDBRANCH  10  12
ENDBRANCH   2  10
TORSDOF 4
ENDMDL
MODEL 8
REMARK VINA RESULT:      -5.7     13.217     16.203
REMARK SMILES COC1=C[C@@H](C=CC(=O)O)C=C1
REMARK SMILES IDX 6 1 7 2 5 3 3 4 4 5 12 6 11 7 2 8 1 9 8 10 9 11 10 12
REMARK H PARENT 10 13
ROOT
ATOM      1  C   UNL     1      -8.435   1.698 -32.055  1.00  0.00    -0.008 C 
ATOM      2  C   UNL     1      -8.855   1.003 -33.126  1.00  0.00     0.090 C 
ENDROOT
BRANCH   1   3
ATOM      3  C   UNL     1      -7.013   1.948 -31.628  1.00  0.00     0.061 C 
ATOM      4  C   UNL     1      -5.452   0.297 -31.119  1.00  0.00     0.115 C 
ATOM      5  C   UNL     1      -6.089   0.878 -32.153  1.00  0.00     0.031 C 
ATOM      6  C   UNL     1      -5.862   0.907 -29.880  1.00  0.00     0.042 C 
ATOM      7  C   UNL     1      -6.763   1.866 -30.141  1.00  0.00    -0.011 C 
BRANCH   4   8
ATOM      8  O   UNL     1      -4.534  -0.700 -31.063  1.00  0.00    -0.497 OA
ATOM      9  C   UNL     1      -3.174  -0.284 -31.082  1.00  0.00     0.278 C 
ENDBRANCH   4   8
ENDBRANCH   1   3
BRANCH   2  10
ATOM     10  C   UNL     1     -10.302   0.866 -33.388  1.00  0.00     0.328 C 
ATOM     11  O   UNL     1     -10.829  -0.119 -33.874  1.00  0.00    -0.247 OA
BRANCH  10  12
ATOM     12  O   UNL     1     -10.987   1.969 -33.023  1.00  0.00    -0.478 OA
ATOM     13  H   UNL     1     -10.667   2.803 -33.408  1.00  0.00     0.297 HD
ENDBRANCH  10  12
ENDBRANCH   2  10
TORSDOF 4
ENDMDL
MODEL 9
REMARK VINA RESULT:      -5.7      2.743      4.536
REMARK SMILES COC1=C[C@@H](C=CC(=O)O)C=C1
REMARK SMILES IDX 6 1 7 2 5 3 3 4 4 5 12 6 11 7 2 8 1 9 8 10 9 11 10 12
REMARK H PARENT 10 13
ROOT
ATOM      1  C   UNL     1       6.863  -0.989 -18.769  1.00  0.00    -0.008 C 
ATOM      2  C   UNL     1       7.813  -0.267 -18.151  1.00  0.00     0.090 C 
ENDROOT
BRANCH   1   3
ATOM      3  C   UNL     1       7.035  -1.910 -19.947  1.00  0.00     0.061 C 
ATOM      4  C   UNL     1       5.418  -2.336 -21.567  1.00  0.00     0.115 C 
ATOM      5  C   UNL     1       6.289  -1.398 -21.154  1.00  0.00     0.031 C 
ATOM      6  C   UNL     1       5.512  -3.502 -20.727  1.00  0.00     0.042 C 
ATOM      7  C   UNL     1       6.440  -3.287 -19.782  1.00  0.00    -0.011 C 
BRANCH   4   8
ATOM      8  O   UNL     1       4.530  -2.362 -22.592  1.00  0.00    -0.497 OA
ATOM      9  C   UNL     1       4.982  -1.783 -23.811  1.00  0.00     0.278 C 
ENDBRANCH   4   8
ENDBRANCH   1   3
BRANCH   2  10
ATOM     10  C   UNL     1       7.452   0.584 -16.998  1.00  0.00     0.328 C 
ATOM     11  O   UNL     1       6.952   1.692 -17.084  1.00  0.00    -0.247 OA
BRANCH  10  12
ATOM     12  O   UNL     1       7.740  -0.010 -15.823  1.00  0.00    -0.478 OA
ATOM     13  H   UNL     1       8.605   0.223 -15.441  1.00  0.00     0.297 HD
ENDBRANCH  10  12
ENDBRANCH   2  10
TORSDOF 4
ENDMDL
MODEL 10
REMARK VINA RESULT:      -5.5     13.210     16.257
REMARK SMILES COC1=C[C@@H](C=CC(=O)O)C=C1
REMARK SMILES IDX 6 1 7 2 5 3 3 4 4 5 12 6 11 7 2 8 1 9 8 10 9 11 10 12
REMARK H PARENT 10 13
ROOT
ATOM      1  C   UNL     1      -8.280   1.468 -32.181  1.00  0.00    -0.008 C 
ATOM      2  C   UNL     1      -8.821   1.045 -33.336  1.00  0.00     0.090 C 
ENDROOT
BRANCH   1   3
ATOM      3  C   UNL     1      -6.824   1.709 -31.887  1.00  0.00     0.061 C 
ATOM      4  C   UNL     1      -5.534   0.477 -30.390  1.00  0.00     0.115 C 
ATOM      5  C   UNL     1      -6.102   0.414 -31.608  1.00  0.00     0.031 C 
ATOM      6  C   UNL     1      -5.799   1.757 -29.786  1.00  0.00     0.042 C 
ATOM      7  C   UNL     1      -6.541   2.493 -30.628  1.00  0.00    -0.011 C 
BRANCH   4   8
ATOM      8  O   UNL     1      -4.788  -0.413 -29.688  1.00  0.00    -0.497 OA
ATOM      9  C   UNL     1      -5.247  -1.760 -29.724  1.00  0.00     0.278 C 
ENDBRANCH   4   8
ENDBRANCH   1   3
BRANCH   2  10
ATOM     10  C   UNL     1     -10.284   0.870 -33.438  1.00  0.00     0.328 C 
ATOM     11  O   UNL     1     -10.835  -0.139 -33.844  1.00  0.00    -0.247 OA
BRANCH  10  12
ATOM     12  O   UNL     1     -10.954   1.964 -33.025  1.00  0.00    -0.478 OA
ATOM     13  H   UNL     1     -10.989   2.696 -33.666  1.00  0.00     0.297 HD
ENDBRANCH  10  12
ENDBRANCH   2  10
TORSDOF 4
ENDMDL
