MODEL 1
REMARK VINA RESULT:      -4.9      0.000      0.000
REMARK SMILES Oc1cccc(O)c1O
REMARK SMILES IDX 4 1 5 2 6 3 8 4 2 5 3 6 7 7 1 9 9 11
REMARK H PARENT 7 8 1 10 9 12
ROOT
ATOM      1  C   UNL     1      -0.644  -9.041 -25.731  1.00  0.00     0.008 A 
ATOM      2  C   UNL     1       0.073 -10.234 -25.575  1.00  0.00     0.050 A 
ATOM      3  C   UNL     1      -0.054 -11.237 -26.531  1.00  0.00     0.161 A 
ATOM      4  C   UNL     1      -0.887 -11.053 -27.631  1.00  0.00     0.200 A 
ATOM      5  C   UNL     1      -1.596  -9.868 -27.781  1.00  0.00     0.161 A 
ATOM      6  C   UNL     1      -1.481  -8.857 -26.838  1.00  0.00     0.050 A 
ENDROOT
BRANCH   3   7
ATOM      7  O   UNL     1       0.620 -12.422 -26.434  1.00  0.00    -0.504 OA
ATOM      8  H   UNL     1      -0.034 -13.143 -26.460  1.00  0.00     0.293 HD
ENDBRANCH   3   7
BRANCH   5   9
ATOM      9  O   UNL     1      -2.412  -9.691 -28.861  1.00  0.00    -0.504 OA
ATOM     10  H   UNL     1      -3.310  -9.628 -28.478  1.00  0.00     0.293 HD
ENDBRANCH   5   9
BRANCH   4  11
ATOM     11  O   UNL     1      -1.019 -12.034 -28.575  1.00  0.00    -0.502 OA
ATOM     12  H   UNL     1      -1.966 -12.002 -28.821  1.00  0.00     0.293 HD
ENDBRANCH   4  11
TORSDOF 3
ENDMDL
MODEL 2
REMARK VINA RESULT:      -4.9      1.757      2.449
REMARK SMILES Oc1cccc(O)c1O
REMARK SMILES IDX 4 1 5 2 6 3 8 4 2 5 3 6 7 7 1 9 9 11
REMARK H PARENT 7 8 1 10 9 12
ROOT
ATOM      1  C   UNL     1      -3.137  -9.353 -27.608  1.00  0.00     0.008 A 
ATOM      2  C   UNL     1      -2.838 -10.719 -27.684  1.00  0.00     0.050 A 
ATOM      3  C   UNL     1      -1.509 -11.130 -27.632  1.00  0.00     0.161 A 
ATOM      4  C   UNL     1      -0.491 -10.190 -27.506  1.00  0.00     0.200 A 
ATOM      5  C   UNL     1      -0.793  -8.837 -27.430  1.00  0.00     0.161 A 
ATOM      6  C   UNL     1      -2.112  -8.409 -27.480  1.00  0.00     0.050 A 
ENDROOT
BRANCH   3   7
ATOM      7  O   UNL     1      -1.153 -12.448 -27.701  1.00  0.00    -0.504 OA
ATOM      8  H   UNL     1      -1.428 -12.879 -26.873  1.00  0.00     0.293 HD
ENDBRANCH   3   7
BRANCH   5   9
ATOM      9  O   UNL     1       0.208  -7.918 -27.306  1.00  0.00    -0.504 OA
ATOM     10  H   UNL     1       0.193  -7.427 -28.152  1.00  0.00     0.293 HD
ENDBRANCH   5   9
BRANCH   4  11
ATOM     11  O   UNL     1       0.818 -10.586 -27.455  1.00  0.00    -0.502 OA
ATOM     12  H   UNL     1       0.920 -11.170 -28.234  1.00  0.00     0.293 HD
ENDBRANCH   4  11
TORSDOF 3
ENDMDL
MODEL 3
REMARK VINA RESULT:      -4.9     10.387     10.803
REMARK SMILES Oc1cccc(O)c1O
REMARK SMILES IDX 4 1 5 2 6 3 8 4 2 5 3 6 7 7 1 9 9 11
REMARK H PARENT 7 8 1 10 9 12
ROOT
ATOM      1  C   UNL     1      -4.516  -1.207 -28.476  1.00  0.00     0.008 A 
ATOM      2  C   UNL     1      -3.600  -0.442 -27.742  1.00  0.00     0.050 A 
ATOM      3  C   UNL     1      -2.495   0.105 -28.388  1.00  0.00     0.161 A 
ATOM      4  C   UNL     1      -2.305  -0.109 -29.749  1.00  0.00     0.200 A 
ATOM      5  C   UNL     1      -3.215  -0.867 -30.473  1.00  0.00     0.161 A 
ATOM      6  C   UNL     1      -4.323  -1.420 -29.846  1.00  0.00     0.050 A 
ENDROOT
BRANCH   3   7
ATOM      7  O   UNL     1      -1.568   0.860 -27.726  1.00  0.00    -0.504 OA
ATOM      8  H   UNL     1      -1.253   1.551 -28.333  1.00  0.00     0.293 HD
ENDBRANCH   3   7
BRANCH   5   9
ATOM      9  O   UNL     1      -3.025  -1.075 -31.808  1.00  0.00    -0.504 OA
ATOM     10  H   UNL     1      -2.850  -2.034 -31.882  1.00  0.00     0.293 HD
ENDBRANCH   5   9
BRANCH   4  11
ATOM     11  O   UNL     1      -1.220   0.424 -30.392  1.00  0.00    -0.502 OA
ATOM     12  H   UNL     1      -0.955  -0.272 -31.027  1.00  0.00     0.293 HD
ENDBRANCH   4  11
TORSDOF 3
ENDMDL
MODEL 4
REMARK VINA RESULT:      -4.8     10.397     10.950
REMARK SMILES Oc1cccc(O)c1O
REMARK SMILES IDX 4 1 5 2 6 3 8 4 2 5 3 6 7 7 1 9 9 11
REMARK H PARENT 7 8 1 10 9 12
ROOT
ATOM      1  C   UNL     1      -4.508  -1.171 -28.440  1.00  0.00     0.008 A 
ATOM      2  C   UNL     1      -4.343  -1.409 -29.810  1.00  0.00     0.050 A 
ATOM      3  C   UNL     1      -3.239  -0.875 -30.467  1.00  0.00     0.161 A 
ATOM      4  C   UNL     1      -2.309  -0.113 -29.767  1.00  0.00     0.200 A 
ATOM      5  C   UNL     1      -2.476   0.119 -28.408  1.00  0.00     0.161 A 
ATOM      6  C   UNL     1      -3.571  -0.405 -27.736  1.00  0.00     0.050 A 
ENDROOT
BRANCH   3   7
ATOM      7  O   UNL     1      -3.024  -1.072 -31.803  1.00  0.00    -0.504 OA
ATOM      8  H   UNL     1      -3.213  -0.236 -32.265  1.00  0.00     0.293 HD
ENDBRANCH   3   7
BRANCH   5   9
ATOM      9  O   UNL     1      -1.562   0.867 -27.724  1.00  0.00    -0.504 OA
ATOM     10  H   UNL     1      -1.653   1.765 -28.100  1.00  0.00     0.293 HD
ENDBRANCH   5   9
BRANCH   4  11
ATOM     11  O   UNL     1      -1.221   0.417 -30.406  1.00  0.00    -0.502 OA
ATOM     12  H   UNL     1      -1.608   0.981 -31.106  1.00  0.00     0.293 HD
ENDBRANCH   4  11
TORSDOF 3
ENDMDL
MODEL 5
REMARK VINA RESULT:      -4.8      0.121      2.760
REMARK SMILES Oc1cccc(O)c1O
REMARK SMILES IDX 4 1 5 2 6 3 8 4 2 5 3 6 7 7 1 9 9 11
REMARK H PARENT 7 8 1 10 9 12
ROOT
ATOM      1  C   UNL     1      -0.710  -8.999 -25.719  1.00  0.00     0.008 A 
ATOM      2  C   UNL     1      -1.598  -8.816 -26.786  1.00  0.00     0.050 A 
ATOM      3  C   UNL     1      -1.718  -9.810 -27.753  1.00  0.00     0.161 A 
ATOM      4  C   UNL     1      -0.961 -10.974 -27.656  1.00  0.00     0.200 A 
ATOM      5  C   UNL     1      -0.083 -11.152 -26.595  1.00  0.00     0.161 A 
ATOM      6  C   UNL     1       0.049 -10.171 -25.622  1.00  0.00     0.050 A 
ENDROOT
BRANCH   3   7
ATOM      7  O   UNL     1      -2.566  -9.689 -28.818  1.00  0.00    -0.504 OA
ATOM      8  H   UNL     1      -2.345 -10.386 -29.460  1.00  0.00     0.293 HD
ENDBRANCH   3   7
BRANCH   5   9
ATOM      9  O   UNL     1       0.657 -12.294 -26.503  1.00  0.00    -0.504 OA
ATOM     10  H   UNL     1       1.277 -12.123 -25.766  1.00  0.00     0.293 HD
ENDBRANCH   5   9
BRANCH   4  11
ATOM     11  O   UNL     1      -1.072 -11.956 -28.603  1.00  0.00    -0.502 OA
ATOM     12  H   UNL     1      -0.175 -12.346 -28.646  1.00  0.00     0.293 HD
ENDBRANCH   4  11
TORSDOF 3
ENDMDL
MODEL 6
REMARK VINA RESULT:      -4.8     10.095     11.377
REMARK SMILES Oc1cccc(O)c1O
REMARK SMILES IDX 4 1 5 2 6 3 8 4 2 5 3 6 7 7 1 9 9 11
REMARK H PARENT 7 8 1 10 9 12
ROOT
ATOM      1  C   UNL     1      -3.795  -1.886 -28.435  1.00  0.00     0.008 A 
ATOM      2  C   UNL     1      -3.572  -1.811 -29.816  1.00  0.00     0.050 A 
ATOM      3  C   UNL     1      -3.462  -0.563 -30.422  1.00  0.00     0.161 A 
ATOM      4  C   UNL     1      -3.572   0.596 -29.660  1.00  0.00     0.200 A 
ATOM      5  C   UNL     1      -3.792   0.517 -28.292  1.00  0.00     0.161 A 
ATOM      6  C   UNL     1      -3.905  -0.719 -27.670  1.00  0.00     0.050 A 
ENDROOT
BRANCH   3   7
ATOM      7  O   UNL     1      -3.244  -0.424 -31.764  1.00  0.00    -0.504 OA
ATOM      8  H   UNL     1      -3.993  -0.832 -32.234  1.00  0.00     0.293 HD
ENDBRANCH   3   7
BRANCH   5   9
ATOM      9  O   UNL     1      -3.900   1.655 -27.548  1.00  0.00    -0.504 OA
ATOM     10  H   UNL     1      -2.979   1.968 -27.447  1.00  0.00     0.293 HD
ENDBRANCH   5   9
BRANCH   4  11
ATOM     11  O   UNL     1      -3.466   1.828 -30.249  1.00  0.00    -0.502 OA
ATOM     12  H   UNL     1      -3.320   2.438 -29.497  1.00  0.00     0.293 HD
ENDBRANCH   4  11
TORSDOF 3
ENDMDL
MODEL 7
REMARK VINA RESULT:      -4.7      1.222      2.826
REMARK SMILES Oc1cccc(O)c1O
REMARK SMILES IDX 4 1 5 2 6 3 8 4 2 5 3 6 7 7 1 9 9 11
REMARK H PARENT 7 8 1 10 9 12
ROOT
ATOM      1  C   UNL     1      -1.395  -9.253 -26.761  1.00  0.00     0.008 A 
ATOM      2  C   UNL     1      -1.617 -10.390 -27.547  1.00  0.00     0.050 A 
ATOM      3  C   UNL     1      -0.828 -11.520 -27.351  1.00  0.00     0.161 A 
ATOM      4  C   UNL     1       0.171 -11.515 -26.382  1.00  0.00     0.200 A 
ATOM      5  C   UNL     1       0.386 -10.385 -25.605  1.00  0.00     0.161 A 
ATOM      6  C   UNL     1      -0.390  -9.249 -25.786  1.00  0.00     0.050 A 
ENDROOT
BRANCH   3   7
ATOM      7  O   UNL     1      -0.996 -12.660 -28.086  1.00  0.00    -0.504 OA
ATOM      8  H   UNL     1      -1.011 -13.415 -27.473  1.00  0.00     0.293 HD
ENDBRANCH   3   7
BRANCH   5   9
ATOM      9  O   UNL     1       1.367 -10.384 -24.655  1.00  0.00    -0.504 OA
ATOM     10  H   UNL     1       0.882 -10.360 -23.806  1.00  0.00     0.293 HD
ENDBRANCH   5   9
BRANCH   4  11
ATOM     11  O   UNL     1       0.952 -12.621 -26.183  1.00  0.00    -0.502 OA
ATOM     12  H   UNL     1       1.867 -12.276 -26.222  1.00  0.00     0.293 HD
ENDBRANCH   4  11
TORSDOF 3
ENDMDL
MODEL 8
REMARK VINA RESULT:      -4.7     13.240     15.104
REMARK SMILES Oc1cccc(O)c1O
REMARK SMILES IDX 4 1 5 2 6 3 8 4 2 5 3 6 7 7 1 9 9 11
REMARK H PARENT 7 8 1 10 9 12
ROOT
ATOM      1  C   UNL     1      -7.654   0.893 -32.372  1.00  0.00     0.008 A 
ATOM      2  C   UNL     1      -8.684   1.743 -32.795  1.00  0.00     0.050 A 
ATOM      3  C   UNL     1      -9.992   1.269 -32.819  1.00  0.00     0.161 A 
ATOM      4  C   UNL     1     -10.271  -0.037 -32.427  1.00  0.00     0.200 A 
ATOM      5  C   UNL     1      -9.246  -0.875 -32.009  1.00  0.00     0.161 A 
ATOM      6  C   UNL     1      -7.935  -0.420 -31.978  1.00  0.00     0.050 A 
ENDROOT
BRANCH   3   7
ATOM      7  O   UNL     1     -11.040   2.050 -33.221  1.00  0.00    -0.504 OA
ATOM      8  H   UNL     1     -11.004   2.126 -34.190  1.00  0.00     0.293 HD
ENDBRANCH   3   7
BRANCH   5   9
ATOM      9  O   UNL     1      -9.522  -2.155 -31.625  1.00  0.00    -0.504 OA
ATOM     10  H   UNL     1      -9.706  -2.087 -30.667  1.00  0.00     0.293 HD
ENDBRANCH   5   9
BRANCH   4  11
ATOM     11  O   UNL     1     -11.554  -0.511 -32.450  1.00  0.00    -0.502 OA
ATOM     12  H   UNL     1     -11.804  -0.475 -33.396  1.00  0.00     0.293 HD
ENDBRANCH   4  11
TORSDOF 3
ENDMDL
MODEL 9
REMARK VINA RESULT:      -4.7     20.440     21.430
REMARK SMILES Oc1cccc(O)c1O
REMARK SMILES IDX 4 1 5 2 6 3 8 4 2 5 3 6 7 7 1 9 9 11
REMARK H PARENT 7 8 1 10 9 12
ROOT
ATOM      1  C   UNL     1       8.926   9.246 -33.928  1.00  0.00     0.008 A 
ATOM      2  C   UNL     1       7.592   9.651 -34.061  1.00  0.00     0.050 A 
ATOM      3  C   UNL     1       6.576   8.716 -33.896  1.00  0.00     0.161 A 
ATOM      4  C   UNL     1       6.884   7.392 -33.602  1.00  0.00     0.200 A 
ATOM      5  C   UNL     1       8.208   6.994 -33.470  1.00  0.00     0.161 A 
ATOM      6  C   UNL     1       9.236   7.913 -33.631  1.00  0.00     0.050 A 
ENDROOT
BRANCH   3   7
ATOM      7  O   UNL     1       5.255   9.051 -34.013  1.00  0.00    -0.504 OA
ATOM      8  H   UNL     1       5.201   9.915 -34.456  1.00  0.00     0.293 HD
ENDBRANCH   3   7
BRANCH   5   9
ATOM      9  O   UNL     1       8.508   5.695 -33.182  1.00  0.00    -0.504 OA
ATOM     10  H   UNL     1       8.039   5.179 -33.869  1.00  0.00     0.293 HD
ENDBRANCH   5   9
BRANCH   4  11
ATOM     11  O   UNL     1       5.890   6.465 -33.439  1.00  0.00    -0.502 OA
ATOM     12  H   UNL     1       5.778   6.406 -32.468  1.00  0.00     0.293 HD
ENDBRANCH   4  11
TORSDOF 3
ENDMDL
MODEL 10
REMARK VINA RESULT:      -4.7     20.533     21.402
REMARK SMILES Oc1cccc(O)c1O
REMARK SMILES IDX 4 1 5 2 6 3 8 4 2 5 3 6 7 7 1 9 9 11
REMARK H PARENT 7 8 1 10 9 12
ROOT
ATOM      1  C   UNL     1       6.567  10.018 -33.769  1.00  0.00     0.008 A 
ATOM      2  C   UNL     1       7.937   9.732 -33.801  1.00  0.00     0.050 A 
ATOM      3  C   UNL     1       8.357   8.406 -33.823  1.00  0.00     0.161 A 
ATOM      4  C   UNL     1       7.422   7.376 -33.814  1.00  0.00     0.200 A 
ATOM      5  C   UNL     1       6.064   7.664 -33.783  1.00  0.00     0.161 A 
ATOM      6  C   UNL     1       5.626   8.981 -33.761  1.00  0.00     0.050 A 
ENDROOT
BRANCH   3   7
ATOM      7  O   UNL     1       9.680   8.064 -33.855  1.00  0.00    -0.504 OA
ATOM      8  H   UNL     1      10.156   8.745 -34.361  1.00  0.00     0.293 HD
ENDBRANCH   3   7
BRANCH   5   9
ATOM      9  O   UNL     1       5.149   6.652 -33.774  1.00  0.00    -0.504 OA
ATOM     10  H   UNL     1       4.718   6.706 -34.650  1.00  0.00     0.293 HD
ENDBRANCH   5   9
BRANCH   4  11
ATOM     11  O   UNL     1       7.827   6.069 -33.834  1.00  0.00    -0.502 OA
ATOM     12  H   UNL     1       7.013   5.572 -34.060  1.00  0.00     0.293 HD
ENDBRANCH   4  11
TORSDOF 3
ENDMDL
