MODEL 1
REMARK VINA RESULT:      -5.2      0.000      0.000
REMARK SMILES C=CCSC[C@H](N)C(=O)O
REMARK SMILES IDX 5 1 4 2 3 3 2 4 1 5 6 6 8 7 9 8 10 9 7 11
REMARK H PARENT 10 10 7 12 7 13
ROOT
ATOM      1  C   UNL     1       0.374  -9.949 -26.644  1.00  0.00     0.100 C 
ENDROOT
BRANCH   1   2
ATOM      2  S   UNL     1      -1.140  -8.923 -26.624  1.00  0.00    -0.156 SA
BRANCH   2   3
ATOM      3  C   UNL     1      -2.099  -9.837 -27.868  1.00  0.00     0.096 C 
BRANCH   3   4
ATOM      4  C   UNL     1      -3.452  -9.208 -27.994  1.00  0.00    -0.024 C 
ATOM      5  C   UNL     1      -4.533  -9.592 -27.300  1.00  0.00     0.005 C 
ENDBRANCH   3   4
ENDBRANCH   2   3
ENDBRANCH   1   2
BRANCH   1   6
ATOM      6  C   UNL     1       0.268 -11.111 -25.648  1.00  0.00     0.172 C 
BRANCH   6   7
ATOM      7  C   UNL     1       0.332 -12.444 -26.405  1.00  0.00     0.321 C 
ATOM      8  O   UNL     1      -0.509 -12.857 -27.185  1.00  0.00    -0.251 OA
BRANCH   7   9
ATOM      9  O   UNL     1       1.456 -13.137 -26.077  1.00  0.00    -0.480 OA
ATOM     10  H   UNL     1       2.192 -12.716 -26.589  1.00  0.00     0.296 HD
ENDBRANCH   7   9
ENDBRANCH   6   7
BRANCH   6  11
ATOM     11  N   UNL     1       1.347 -11.113 -24.603  1.00  0.00    -0.318 NA
ATOM     12  H   UNL     1       0.903 -10.768 -23.742  1.00  0.00     0.119 HD
ATOM     13  H   UNL     1       2.002 -10.356 -24.831  1.00  0.00     0.119 HD
ENDBRANCH   6  11
ENDBRANCH   1   6
TORSDOF 7
ENDMDL
MODEL 2
REMARK VINA RESULT:      -5.2      1.719      1.913
REMARK SMILES C=CCSC[C@H](N)C(=O)O
REMARK SMILES IDX 5 1 4 2 3 3 2 4 1 5 6 6 8 7 9 8 10 9 7 11
REMARK H PARENT 10 10 7 12 7 13
ROOT
ATOM      1  C   UNL     1      -1.498  -9.964 -26.223  1.00  0.00     0.100 C 
ENDROOT
BRANCH   1   2
ATOM      2  S   UNL     1      -2.029 -10.418 -27.912  1.00  0.00    -0.156 SA
BRANCH   2   3
ATOM      3  C   UNL     1      -3.159  -9.029 -28.221  1.00  0.00     0.096 C 
BRANCH   3   4
ATOM      4  C   UNL     1      -4.101  -8.906 -27.064  1.00  0.00    -0.024 C 
ATOM      5  C   UNL     1      -5.214  -9.639 -26.912  1.00  0.00     0.005 C 
ENDBRANCH   3   4
ENDBRANCH   2   3
ENDBRANCH   1   2
BRANCH   1   6
ATOM      6  C   UNL     1       0.030  -9.850 -26.135  1.00  0.00     0.172 C 
BRANCH   6   7
ATOM      7  C   UNL     1       0.619 -11.187 -25.666  1.00  0.00     0.321 C 
ATOM      8  O   UNL     1       0.467 -12.262 -26.222  1.00  0.00    -0.251 OA
BRANCH   7   9
ATOM      9  O   UNL     1       1.329 -11.030 -24.517  1.00  0.00    -0.480 OA
ATOM     10  H   UNL     1       2.184 -10.606 -24.784  1.00  0.00     0.296 HD
ENDBRANCH   7   9
ENDBRANCH   6   7
BRANCH   6  11
ATOM     11  N   UNL     1       0.685  -9.478 -27.433  1.00  0.00    -0.318 NA
ATOM     12  H   UNL     1       1.682  -9.349 -27.216  1.00  0.00     0.119 HD
ATOM     13  H   UNL     1       0.386  -8.525 -27.671  1.00  0.00     0.119 HD
ENDBRANCH   6  11
ENDBRANCH   1   6
TORSDOF 7
ENDMDL
MODEL 3
REMARK VINA RESULT:      -4.7      3.363      4.958
REMARK SMILES C=CCSC[C@H](N)C(=O)O
REMARK SMILES IDX 5 1 4 2 3 3 2 4 1 5 6 6 8 7 9 8 10 9 7 11
REMARK H PARENT 10 10 7 12 7 13
ROOT
ATOM      1  C   UNL     1      -1.843 -10.637 -27.387  1.00  0.00     0.100 C 
ENDROOT
BRANCH   1   2
ATOM      2  S   UNL     1      -0.709  -9.308 -26.847  1.00  0.00    -0.156 SA
BRANCH   2   3
ATOM      3  C   UNL     1       0.355 -10.294 -25.751  1.00  0.00     0.096 C 
BRANCH   3   4
ATOM      4  C   UNL     1       0.216 -11.739 -26.115  1.00  0.00    -0.024 C 
ATOM      5  C   UNL     1       0.870 -12.739 -25.506  1.00  0.00     0.005 C 
ENDBRANCH   3   4
ENDBRANCH   2   3
ENDBRANCH   1   2
BRANCH   1   6
ATOM      6  C   UNL     1      -3.074 -10.059 -28.100  1.00  0.00     0.172 C 
BRANCH   6   7
ATOM      7  C   UNL     1      -4.280 -10.092 -27.152  1.00  0.00     0.321 C 
ATOM      8  O   UNL     1      -4.940 -11.081 -26.879  1.00  0.00    -0.251 OA
BRANCH   7   9
ATOM      9  O   UNL     1      -4.545  -8.853 -26.659  1.00  0.00    -0.480 OA
ATOM     10  H   UNL     1      -5.277  -8.975 -26.001  1.00  0.00     0.296 HD
ENDBRANCH   7   9
ENDBRANCH   6   7
BRANCH   6  11
ATOM     11  N   UNL     1      -2.889  -8.647 -28.576  1.00  0.00    -0.318 NA
ATOM     12  H   UNL     1      -2.009  -8.644 -29.107  1.00  0.00     0.119 HD
ATOM     13  H   UNL     1      -2.656  -8.071 -27.759  1.00  0.00     0.119 HD
ENDBRANCH   6  11
ENDBRANCH   1   6
TORSDOF 7
ENDMDL
MODEL 4
REMARK VINA RESULT:      -4.7     14.711     15.664
REMARK SMILES C=CCSC[C@H](N)C(=O)O
REMARK SMILES IDX 5 1 4 2 3 3 2 4 1 5 6 6 8 7 9 8 10 9 7 11
REMARK H PARENT 10 10 7 12 7 13
ROOT
ATOM      1  C   UNL     1       8.159  -0.811 -18.765  1.00  0.00     0.100 C 
ENDROOT
BRANCH   1   2
ATOM      2  S   UNL     1       6.509  -1.598 -18.704  1.00  0.00    -0.156 SA
BRANCH   2   3
ATOM      3  C   UNL     1       6.627  -2.585 -20.226  1.00  0.00     0.096 C 
BRANCH   3   4
ATOM      4  C   UNL     1       5.871  -1.887 -21.313  1.00  0.00    -0.024 C 
ATOM      5  C   UNL     1       5.104  -2.508 -22.221  1.00  0.00     0.005 C 
ENDBRANCH   3   4
ENDBRANCH   2   3
ENDBRANCH   1   2
BRANCH   1   6
ATOM      6  C   UNL     1       8.713  -0.575 -17.353  1.00  0.00     0.172 C 
BRANCH   6   7
ATOM      7  C   UNL     1       8.417   0.866 -16.919  1.00  0.00     0.321 C 
ATOM      8  O   UNL     1       7.325   1.409 -16.962  1.00  0.00    -0.251 OA
BRANCH   7   9
ATOM      9  O   UNL     1       9.548   1.488 -16.491  1.00  0.00    -0.480 OA
ATOM     10  H   UNL     1      10.122   0.773 -16.113  1.00  0.00     0.296 HD
ENDBRANCH   7   9
ENDBRANCH   6   7
BRANCH   6  11
ATOM     11  N   UNL     1       8.146  -1.503 -16.318  1.00  0.00    -0.318 NA
ATOM     12  H   UNL     1       7.793  -2.318 -16.836  1.00  0.00     0.119 HD
ATOM     13  H   UNL     1       7.283  -1.080 -15.959  1.00  0.00     0.119 HD
ENDBRANCH   6  11
ENDBRANCH   1   6
TORSDOF 7
ENDMDL
MODEL 5
REMARK VINA RESULT:      -4.6     10.969     11.981
REMARK SMILES C=CCSC[C@H](N)C(=O)O
REMARK SMILES IDX 5 1 4 2 3 3 2 4 1 5 6 6 8 7 9 8 10 9 7 11
REMARK H PARENT 10 10 7 12 7 13
ROOT
ATOM      1  C   UNL     1       5.323  -1.058 -24.641  1.00  0.00     0.100 C 
ENDROOT
BRANCH   1   2
ATOM      2  S   UNL     1       4.801  -0.415 -26.271  1.00  0.00    -0.156 SA
BRANCH   2   3
ATOM      3  C   UNL     1       6.221   0.670 -26.599  1.00  0.00     0.096 C 
BRANCH   3   4
ATOM      4  C   UNL     1       6.719   0.410 -27.987  1.00  0.00    -0.024 C 
ATOM      5  C   UNL     1       5.967   0.513 -29.092  1.00  0.00     0.005 C 
ENDBRANCH   3   4
ENDBRANCH   2   3
ENDBRANCH   1   2
BRANCH   1   6
ATOM      6  C   UNL     1       4.281  -2.029 -24.069  1.00  0.00     0.172 C 
BRANCH   6   7
ATOM      7  C   UNL     1       4.686  -2.437 -22.646  1.00  0.00     0.321 C 
ATOM      8  O   UNL     1       5.452  -1.822 -21.923  1.00  0.00    -0.251 OA
BRANCH   7   9
ATOM      9  O   UNL     1       4.092  -3.608 -22.288  1.00  0.00    -0.480 OA
ATOM     10  H   UNL     1       4.511  -3.870 -21.429  1.00  0.00     0.296 HD
ENDBRANCH   7   9
ENDBRANCH   6   7
BRANCH   6  11
ATOM     11  N   UNL     1       2.891  -1.464 -24.017  1.00  0.00    -0.318 NA
ATOM     12  H   UNL     1       2.978  -0.550 -23.555  1.00  0.00     0.119 HD
ATOM     13  H   UNL     1       2.359  -2.009 -23.330  1.00  0.00     0.119 HD
ENDBRANCH   6  11
ENDBRANCH   1   6
TORSDOF 7
ENDMDL
MODEL 6
REMARK VINA RESULT:      -4.4      1.803      2.100
REMARK SMILES C=CCSC[C@H](N)C(=O)O
REMARK SMILES IDX 5 1 4 2 3 3 2 4 1 5 6 6 8 7 9 8 10 9 7 11
REMARK H PARENT 10 10 7 12 7 13
ROOT
ATOM      1  C   UNL     1      -0.660 -10.374 -26.180  1.00  0.00     0.100 C 
ENDROOT
BRANCH   1   2
ATOM      2  S   UNL     1      -1.676 -10.571 -27.688  1.00  0.00    -0.156 SA
BRANCH   2   3
ATOM      3  C   UNL     1      -2.758  -9.126 -27.472  1.00  0.00     0.096 C 
BRANCH   3   4
ATOM      4  C   UNL     1      -4.168  -9.530 -27.770  1.00  0.00    -0.024 C 
ATOM      5  C   UNL     1      -5.165  -9.515 -26.873  1.00  0.00     0.005 C 
ENDBRANCH   3   4
ENDBRANCH   2   3
ENDBRANCH   1   2
BRANCH   1   6
ATOM      6  C   UNL     1       0.492 -11.388 -26.152  1.00  0.00     0.172 C 
BRANCH   6   7
ATOM      7  C   UNL     1       1.047 -11.496 -24.726  1.00  0.00     0.321 C 
ATOM      8  O   UNL     1       1.680 -10.630 -24.144  1.00  0.00    -0.251 OA
BRANCH   7   9
ATOM      9  O   UNL     1       0.761 -12.709 -24.182  1.00  0.00    -0.480 OA
ATOM     10  H   UNL     1       0.343 -12.519 -23.303  1.00  0.00     0.296 HD
ENDBRANCH   7   9
ENDBRANCH   6   7
BRANCH   6  11
ATOM     11  N   UNL     1       0.097 -12.764 -26.606  1.00  0.00    -0.318 NA
ATOM     12  H   UNL     1       0.389 -13.401 -25.854  1.00  0.00     0.119 HD
ATOM     13  H   UNL     1       0.724 -13.029 -27.375  1.00  0.00     0.119 HD
ENDBRANCH   6  11
ENDBRANCH   1   6
TORSDOF 7
ENDMDL
MODEL 7
REMARK VINA RESULT:      -4.4     13.646     14.607
REMARK SMILES C=CCSC[C@H](N)C(=O)O
REMARK SMILES IDX 5 1 4 2 3 3 2 4 1 5 6 6 8 7 9 8 10 9 7 11
REMARK H PARENT 10 10 7 12 7 13
ROOT
ATOM      1  C   UNL     1       6.504  -0.835 -18.715  1.00  0.00     0.100 C 
ENDROOT
BRANCH   1   2
ATOM      2  S   UNL     1       6.685  -2.338 -19.741  1.00  0.00    -0.156 SA
BRANCH   2   3
ATOM      3  C   UNL     1       5.958  -1.701 -21.280  1.00  0.00     0.096 C 
BRANCH   3   4
ATOM      4  C   UNL     1       5.188  -2.801 -21.942  1.00  0.00    -0.024 C 
ATOM      5  C   UNL     1       4.477  -2.654 -23.069  1.00  0.00     0.005 C 
ENDBRANCH   3   4
ENDBRANCH   2   3
ENDBRANCH   1   2
BRANCH   1   6
ATOM      6  C   UNL     1       7.791  -0.541 -17.931  1.00  0.00     0.172 C 
BRANCH   6   7
ATOM      7  C   UNL     1       7.592  -0.915 -16.457  1.00  0.00     0.321 C 
ATOM      8  O   UNL     1       8.458  -0.897 -15.598  1.00  0.00    -0.251 OA
BRANCH   7   9
ATOM      9  O   UNL     1       6.309  -1.300 -16.221  1.00  0.00    -0.480 OA
ATOM     10  H   UNL     1       6.325  -2.291 -16.198  1.00  0.00     0.296 HD
ENDBRANCH   7   9
ENDBRANCH   6   7
BRANCH   6  11
ATOM     11  N   UNL     1       8.994  -1.279 -18.445  1.00  0.00    -0.318 NA
ATOM     12  H   UNL     1       9.358  -0.713 -19.221  1.00  0.00     0.119 HD
ATOM     13  H   UNL     1       8.660  -2.122 -18.925  1.00  0.00     0.119 HD
ENDBRANCH   6  11
ENDBRANCH   1   6
TORSDOF 7
ENDMDL
MODEL 8
REMARK VINA RESULT:      -4.4     12.381     13.513
REMARK SMILES C=CCSC[C@H](N)C(=O)O
REMARK SMILES IDX 5 1 4 2 3 3 2 4 1 5 6 6 8 7 9 8 10 9 7 11
REMARK H PARENT 10 10 7 12 7 13
ROOT
ATOM      1  C   UNL     1      -5.752   0.156 -31.449  1.00  0.00     0.100 C 
ENDROOT
BRANCH   1   2
ATOM      2  S   UNL     1      -6.992   1.469 -31.735  1.00  0.00    -0.156 SA
BRANCH   2   3
ATOM      3  C   UNL     1      -7.385   1.092 -33.469  1.00  0.00     0.096 C 
BRANCH   3   4
ATOM      4  C   UNL     1      -8.634   0.268 -33.514  1.00  0.00    -0.024 C 
ATOM      5  C   UNL     1      -9.867   0.770 -33.668  1.00  0.00     0.005 C 
ENDBRANCH   3   4
ENDBRANCH   2   3
ENDBRANCH   1   2
BRANCH   1   6
ATOM      6  C   UNL     1      -4.341   0.746 -31.312  1.00  0.00     0.172 C 
BRANCH   6   7
ATOM      7  C   UNL     1      -3.321  -0.390 -31.168  1.00  0.00     0.321 C 
ATOM      8  O   UNL     1      -3.578  -1.539 -30.849  1.00  0.00    -0.251 OA
BRANCH   7   9
ATOM      9  O   UNL     1      -2.060   0.053 -31.423  1.00  0.00    -0.480 OA
ATOM     10  H   UNL     1      -1.460  -0.503 -30.863  1.00  0.00     0.296 HD
ENDBRANCH   7   9
ENDBRANCH   6   7
BRANCH   6  11
ATOM     11  N   UNL     1      -3.929   1.603 -32.474  1.00  0.00    -0.318 NA
ATOM     12  H   UNL     1      -4.519   2.444 -32.424  1.00  0.00     0.119 HD
ATOM     13  H   UNL     1      -4.264   1.149 -33.331  1.00  0.00     0.119 HD
ENDBRANCH   6  11
ENDBRANCH   1   6
TORSDOF 7
ENDMDL
MODEL 9
REMARK VINA RESULT:      -4.4     14.598     15.605
REMARK SMILES C=CCSC[C@H](N)C(=O)O
REMARK SMILES IDX 5 1 4 2 3 3 2 4 1 5 6 6 8 7 9 8 10 9 7 11
REMARK H PARENT 10 10 7 12 7 13
ROOT
ATOM      1  C   UNL     1       6.600  -1.553 -17.000  1.00  0.00     0.100 C 
ENDROOT
BRANCH   1   2
ATOM      2  S   UNL     1       6.719  -1.196 -18.790  1.00  0.00    -0.156 SA
BRANCH   2   3
ATOM      3  C   UNL     1       6.356  -2.862 -19.420  1.00  0.00     0.096 C 
BRANCH   3   4
ATOM      4  C   UNL     1       6.499  -2.857 -20.910  1.00  0.00    -0.024 C 
ATOM      5  C   UNL     1       5.589  -2.353 -21.756  1.00  0.00     0.005 C 
ENDBRANCH   3   4
ENDBRANCH   2   3
ENDBRANCH   1   2
BRANCH   1   6
ATOM      6  C   UNL     1       7.362  -0.508 -16.175  1.00  0.00     0.172 C 
BRANCH   6   7
ATOM      7  C   UNL     1       8.807  -0.976 -15.959  1.00  0.00     0.321 C 
ATOM      8  O   UNL     1       9.183  -1.735 -15.080  1.00  0.00    -0.251 OA
BRANCH   7   9
ATOM      9  O   UNL     1       9.643  -0.414 -16.873  1.00  0.00    -0.480 OA
ATOM     10  H   UNL     1       9.079   0.194 -17.416  1.00  0.00     0.296 HD
ENDBRANCH   7   9
ENDBRANCH   6   7
BRANCH   6  11
ATOM     11  N   UNL     1       7.400   0.853 -16.808  1.00  0.00    -0.318 NA
ATOM     12  H   UNL     1       6.888   0.762 -17.695  1.00  0.00     0.119 HD
ATOM     13  H   UNL     1       8.362   1.022 -17.126  1.00  0.00     0.119 HD
ENDBRANCH   6  11
ENDBRANCH   1   6
TORSDOF 7
ENDMDL
MODEL 10
REMARK VINA RESULT:      -4.4     13.294     14.913
REMARK SMILES C=CCSC[C@H](N)C(=O)O
REMARK SMILES IDX 5 1 4 2 3 3 2 4 1 5 6 6 8 7 9 8 10 9 7 11
REMARK H PARENT 10 10 7 12 7 13
ROOT
ATOM      1  C   UNL     1      -8.662  -0.821 -32.301  1.00  0.00     0.100 C 
ENDROOT
BRANCH   1   2
ATOM      2  S   UNL     1      -7.181  -0.350 -31.337  1.00  0.00    -0.156 SA
BRANCH   2   3
ATOM      3  C   UNL     1      -7.078  -1.818 -30.271  1.00  0.00     0.096 C 
BRANCH   3   4
ATOM      4  C   UNL     1      -8.243  -2.711 -30.564  1.00  0.00    -0.024 C 
ATOM      5  C   UNL     1      -8.259  -4.033 -30.338  1.00  0.00     0.005 C 
ENDBRANCH   3   4
ENDBRANCH   2   3
ENDBRANCH   1   2
BRANCH   1   6
ATOM      6  C   UNL     1      -9.097   0.315 -33.237  1.00  0.00     0.172 C 
BRANCH   6   7
ATOM      7  C   UNL     1     -10.601   0.570 -33.071  1.00  0.00     0.321 C 
ATOM      8  O   UNL     1     -11.464  -0.290 -33.010  1.00  0.00    -0.251 OA
BRANCH   7   9
ATOM      9  O   UNL     1     -10.866   1.904 -33.019  1.00  0.00    -0.480 OA
ATOM     10  H   UNL     1     -10.848   2.218 -33.959  1.00  0.00     0.296 HD
ENDBRANCH   7   9
ENDBRANCH   6   7
BRANCH   6  11
ATOM     11  N   UNL     1      -8.373   1.608 -32.998  1.00  0.00    -0.318 NA
ATOM     12  H   UNL     1      -8.663   1.922 -32.063  1.00  0.00     0.119 HD
ATOM     13  H   UNL     1      -8.792   2.318 -33.609  1.00  0.00     0.119 HD
ENDBRANCH   6  11
ENDBRANCH   1   6
TORSDOF 7
ENDMDL
