MODEL 1
REMARK VINA RESULT:      -6.9      0.000      0.000
REMARK SMILES COc1ccc(C=CC(=O)O)cc1
REMARK SMILES IDX 7 1 8 2 6 3 3 4 4 5 13 6 5 7 12 8 2 9 1 10 9 11 10 12 11 13
REMARK H PARENT 11 14
ROOT
ATOM      1  C   UNL     1       5.989  -2.449 -20.711  1.00  0.00     0.015 C 
ATOM      2  C   UNL     1       5.444  -1.677 -21.663  1.00  0.00     0.094 C 
ENDROOT
BRANCH   1   3
ATOM      3  C   UNL     1       6.589  -1.922 -19.479  1.00  0.00    -0.025 A 
ATOM      4  C   UNL     1       7.649  -0.900 -17.074  1.00  0.00     0.118 A 
ATOM      5  C   UNL     1       8.187  -0.511 -18.301  1.00  0.00     0.047 A 
ATOM      6  C   UNL     1       6.573  -1.789 -17.056  1.00  0.00     0.047 A 
ATOM      7  C   UNL     1       7.658  -1.016 -19.496  1.00  0.00     0.012 A 
ATOM      8  C   UNL     1       6.041  -2.292 -18.248  1.00  0.00     0.012 A 
BRANCH   4   9
ATOM      9  O   UNL     1       8.069  -0.485 -15.842  1.00  0.00    -0.497 OA
ATOM     10  C   UNL     1       9.387  -0.854 -15.453  1.00  0.00     0.278 C 
ENDBRANCH   4   9
ENDBRANCH   1   3
BRANCH   2  11
ATOM     11  C   UNL     1       4.883  -2.309 -22.872  1.00  0.00     0.328 C 
ATOM     12  O   UNL     1       4.157  -3.288 -22.872  1.00  0.00    -0.247 OA
BRANCH  11  13
ATOM     13  O   UNL     1       5.267  -1.676 -23.999  1.00  0.00    -0.478 OA
ATOM     14  H   UNL     1       6.228  -1.629 -24.149  1.00  0.00     0.297 HD
ENDBRANCH  11  13
ENDBRANCH   2  11
TORSDOF 4
ENDMDL
MODEL 2
REMARK VINA RESULT:      -6.0     15.140     18.459
REMARK SMILES COc1ccc(C=CC(=O)O)cc1
REMARK SMILES IDX 7 1 8 2 6 3 3 4 4 5 13 6 5 7 12 8 2 9 1 10 9 11 10 12 11 13
REMARK H PARENT 11 14
ROOT
ATOM      1  C   UNL     1      -8.319   0.382 -32.003  1.00  0.00     0.015 C 
ATOM      2  C   UNL     1      -8.831   0.831 -33.159  1.00  0.00     0.094 C 
ENDROOT
BRANCH   1   3
ATOM      3  C   UNL     1      -6.881   0.348 -31.709  1.00  0.00    -0.025 A 
ATOM      4  C   UNL     1      -4.141   0.256 -31.052  1.00  0.00     0.118 A 
ATOM      5  C   UNL     1      -4.631   1.263 -31.882  1.00  0.00     0.047 A 
ATOM      6  C   UNL     1      -5.026  -0.695 -30.543  1.00  0.00     0.047 A 
ATOM      7  C   UNL     1      -5.993   1.311 -32.206  1.00  0.00     0.012 A 
ATOM      8  C   UNL     1      -6.387  -0.648 -30.862  1.00  0.00     0.012 A 
BRANCH   4   9
ATOM      9  O   UNL     1      -2.841   0.095 -30.660  1.00  0.00    -0.497 OA
ATOM     10  C   UNL     1      -2.614  -0.196 -29.287  1.00  0.00     0.278 C 
ENDBRANCH   4   9
ENDBRANCH   1   3
BRANCH   2  11
ATOM     11  C   UNL     1     -10.293   0.805 -33.359  1.00  0.00     0.328 C 
ATOM     12  O   UNL     1     -10.920  -0.149 -33.785  1.00  0.00    -0.247 OA
BRANCH  11  13
ATOM     13  O   UNL     1     -10.872   1.972 -33.010  1.00  0.00    -0.478 OA
ATOM     14  H   UNL     1     -11.196   2.023 -32.094  1.00  0.00     0.297 HD
ENDBRANCH  11  13
ENDBRANCH   2  11
TORSDOF 4
ENDMDL
MODEL 3
REMARK VINA RESULT:      -5.9     15.258     18.415
REMARK SMILES COc1ccc(C=CC(=O)O)cc1
REMARK SMILES IDX 7 1 8 2 6 3 3 4 4 5 13 6 5 7 12 8 2 9 1 10 9 11 10 12 11 13
REMARK H PARENT 11 14
ROOT
ATOM      1  C   UNL     1      -8.547   1.622 -31.826  1.00  0.00     0.015 C 
ATOM      2  C   UNL     1      -8.951   0.716 -32.728  1.00  0.00     0.094 C 
ENDROOT
BRANCH   1   3
ATOM      3  C   UNL     1      -7.207   1.630 -31.224  1.00  0.00    -0.025 A 
ATOM      4  C   UNL     1      -4.633   1.546 -30.076  1.00  0.00     0.118 A 
ATOM      5  C   UNL     1      -5.595   2.425 -29.580  1.00  0.00     0.047 A 
ATOM      6  C   UNL     1      -4.966   0.703 -31.137  1.00  0.00     0.047 A 
ATOM      7  C   UNL     1      -6.876   2.463 -30.148  1.00  0.00     0.012 A 
ATOM      8  C   UNL     1      -6.245   0.738 -31.704  1.00  0.00     0.012 A 
BRANCH   4   9
ATOM      9  O   UNL     1      -3.353   1.408 -29.617  1.00  0.00    -0.497 OA
ATOM     10  C   UNL     1      -3.097   1.839 -28.286  1.00  0.00     0.278 C 
ENDBRANCH   4   9
ENDBRANCH   1   3
BRANCH   2  11
ATOM     11  C   UNL     1     -10.326   0.789 -33.258  1.00  0.00     0.328 C 
ATOM     12  O   UNL     1     -10.889  -0.110 -33.858  1.00  0.00    -0.247 OA
BRANCH  11  13
ATOM     13  O   UNL     1     -10.906   1.979 -32.998  1.00  0.00    -0.478 OA
ATOM     14  H   UNL     1     -10.394   2.762 -33.266  1.00  0.00     0.297 HD
ENDBRANCH  11  13
ENDBRANCH   2  11
TORSDOF 4
ENDMDL
MODEL 4
REMARK VINA RESULT:      -5.9     15.090     18.376
REMARK SMILES COc1ccc(C=CC(=O)O)cc1
REMARK SMILES IDX 7 1 8 2 6 3 3 4 4 5 13 6 5 7 12 8 2 9 1 10 9 11 10 12 11 13
REMARK H PARENT 11 14
ROOT
ATOM      1  C   UNL     1      -8.866  -0.645 -31.781  1.00  0.00     0.015 C 
ATOM      2  C   UNL     1      -9.253   0.567 -32.206  1.00  0.00     0.094 C 
ENDROOT
BRANCH   1   3
ATOM      3  C   UNL     1      -7.559  -0.912 -31.166  1.00  0.00    -0.025 A 
ATOM      4  C   UNL     1      -5.096  -1.452 -29.904  1.00  0.00     0.118 A 
ATOM      5  C   UNL     1      -5.232  -0.338 -30.731  1.00  0.00     0.047 A 
ATOM      6  C   UNL     1      -6.197  -2.286 -29.701  1.00  0.00     0.047 A 
ATOM      7  C   UNL     1      -6.457  -0.068 -31.355  1.00  0.00     0.012 A 
ATOM      8  C   UNL     1      -7.422  -2.016 -30.321  1.00  0.00     0.012 A 
BRANCH   4   9
ATOM      9  O   UNL     1      -3.963  -1.829 -29.239  1.00  0.00    -0.497 OA
ATOM     10  C   UNL     1      -3.012  -0.810 -28.958  1.00  0.00     0.278 C 
ENDBRANCH   4   9
ENDBRANCH   1   3
BRANCH   2  11
ATOM     11  C   UNL     1     -10.583   0.722 -32.826  1.00  0.00     0.328 C 
ATOM     12  O   UNL     1     -11.335  -0.197 -33.098  1.00  0.00    -0.247 OA
BRANCH  11  13
ATOM     13  O   UNL     1     -10.883   2.015 -33.063  1.00  0.00    -0.478 OA
ATOM     14  H   UNL     1     -11.199   2.217 -33.961  1.00  0.00     0.297 HD
ENDBRANCH  11  13
ENDBRANCH   2  11
TORSDOF 4
ENDMDL
MODEL 5
REMARK VINA RESULT:      -5.7     15.800     18.793
REMARK SMILES COc1ccc(C=CC(=O)O)cc1
REMARK SMILES IDX 7 1 8 2 6 3 3 4 4 5 13 6 5 7 12 8 2 9 1 10 9 11 10 12 11 13
REMARK H PARENT 11 14
ROOT
ATOM      1  C   UNL     1      -9.761  -3.780 -30.382  1.00  0.00     0.015 C 
ATOM      2  C   UNL     1      -9.727  -4.894 -29.635  1.00  0.00     0.094 C 
ENDROOT
BRANCH   1   3
ATOM      3  C   UNL     1      -8.628  -2.856 -30.519  1.00  0.00    -0.025 A 
ATOM      4  C   UNL     1      -6.439  -1.087 -30.684  1.00  0.00     0.118 A 
ATOM      5  C   UNL     1      -7.573  -0.877 -31.468  1.00  0.00     0.047 A 
ATOM      6  C   UNL     1      -6.409  -2.175 -29.811  1.00  0.00     0.047 A 
ATOM      7  C   UNL     1      -8.662  -1.754 -31.383  1.00  0.00     0.012 A 
ATOM      8  C   UNL     1      -7.497  -3.051 -29.722  1.00  0.00     0.012 A 
BRANCH   4   9
ATOM      9  O   UNL     1      -5.313  -0.312 -30.671  1.00  0.00    -0.497 OA
ATOM     10  C   UNL     1      -4.820   0.084 -29.398  1.00  0.00     0.278 C 
ENDBRANCH   4   9
ENDBRANCH   1   3
BRANCH   2  11
ATOM     11  C   UNL     1     -10.929  -5.744 -29.552  1.00  0.00     0.328 C 
ATOM     12  O   UNL     1     -11.456  -6.104 -28.513  1.00  0.00    -0.247 OA
BRANCH  11  13
ATOM     13  O   UNL     1     -11.392  -6.086 -30.771  1.00  0.00    -0.478 OA
ATOM     14  H   UNL     1     -11.113  -5.510 -31.504  1.00  0.00     0.297 HD
ENDBRANCH  11  13
ENDBRANCH   2  11
TORSDOF 4
ENDMDL
MODEL 6
REMARK VINA RESULT:      -5.7     13.362     14.538
REMARK SMILES COc1ccc(C=CC(=O)O)cc1
REMARK SMILES IDX 7 1 8 2 6 3 3 4 4 5 13 6 5 7 12 8 2 9 1 10 9 11 10 12 11 13
REMARK H PARENT 11 14
ROOT
ATOM      1  C   UNL     1      -5.412  -1.434 -25.380  1.00  0.00     0.015 C 
ATOM      2  C   UNL     1      -6.405  -0.641 -24.950  1.00  0.00     0.094 C 
ENDROOT
BRANCH   1   3
ATOM      3  C   UNL     1      -4.596  -1.145 -26.566  1.00  0.00    -0.025 A 
ATOM      4  C   UNL     1      -3.063  -0.499 -28.843  1.00  0.00     0.118 A 
ATOM      5  C   UNL     1      -3.707  -1.733 -28.756  1.00  0.00     0.047 A 
ATOM      6  C   UNL     1      -3.198   0.413 -27.795  1.00  0.00     0.047 A 
ATOM      7  C   UNL     1      -4.472  -2.052 -27.627  1.00  0.00     0.012 A 
ATOM      8  C   UNL     1      -3.964   0.097 -26.667  1.00  0.00     0.012 A 
BRANCH   4   9
ATOM      9  O   UNL     1      -2.290  -0.064 -29.883  1.00  0.00    -0.497 OA
ATOM     10  C   UNL     1      -2.825  -0.219 -31.191  1.00  0.00     0.278 C 
ENDBRANCH   4   9
ENDBRANCH   1   3
BRANCH   2  11
ATOM     11  C   UNL     1      -7.175  -1.034 -23.754  1.00  0.00     0.328 C 
ATOM     12  O   UNL     1      -8.012  -0.338 -23.207  1.00  0.00    -0.247 OA
BRANCH  11  13
ATOM     13  O   UNL     1      -6.848  -2.269 -23.325  1.00  0.00    -0.478 OA
ATOM     14  H   UNL     1      -6.786  -2.377 -22.360  1.00  0.00     0.297 HD
ENDBRANCH  11  13
ENDBRANCH   2  11
TORSDOF 4
ENDMDL
MODEL 7
REMARK VINA RESULT:      -5.6      4.150      7.044
REMARK SMILES COc1ccc(C=CC(=O)O)cc1
REMARK SMILES IDX 7 1 8 2 6 3 3 4 4 5 13 6 5 7 12 8 2 9 1 10 9 11 10 12 11 13
REMARK H PARENT 11 14
ROOT
ATOM      1  C   UNL     1       4.794   0.163 -26.854  1.00  0.00     0.015 C 
ATOM      2  C   UNL     1       5.909   0.081 -27.597  1.00  0.00     0.094 C 
ENDROOT
BRANCH   1   3
ATOM      3  C   UNL     1       4.585  -0.595 -25.614  1.00  0.00    -0.025 A 
ATOM      4  C   UNL     1       4.262  -2.105 -23.255  1.00  0.00     0.118 A 
ATOM      5  C   UNL     1       3.150  -1.732 -24.008  1.00  0.00     0.047 A 
ATOM      6  C   UNL     1       5.534  -1.732 -23.692  1.00  0.00     0.047 A 
ATOM      7  C   UNL     1       3.310  -0.986 -25.183  1.00  0.00     0.012 A 
ATOM      8  C   UNL     1       5.697  -0.988 -24.865  1.00  0.00     0.012 A 
BRANCH   4   9
ATOM      9  O   UNL     1       4.245  -2.829 -22.096  1.00  0.00    -0.497 OA
ATOM     10  C   UNL     1       5.472  -2.931 -21.383  1.00  0.00     0.278 C 
ENDBRANCH   4   9
ENDBRANCH   1   3
BRANCH   2  11
ATOM     11  C   UNL     1       6.009   0.874 -28.837  1.00  0.00     0.328 C 
ATOM     12  O   UNL     1       5.592   0.518 -29.925  1.00  0.00    -0.247 OA
BRANCH  11  13
ATOM     13  O   UNL     1       6.622   2.057 -28.632  1.00  0.00    -0.478 OA
ATOM     14  H   UNL     1       7.223   2.348 -29.341  1.00  0.00     0.297 HD
ENDBRANCH  11  13
ENDBRANCH   2  11
TORSDOF 4
ENDMDL
MODEL 8
REMARK VINA RESULT:      -5.5      2.295      6.877
REMARK SMILES COc1ccc(C=CC(=O)O)cc1
REMARK SMILES IDX 7 1 8 2 6 3 3 4 4 5 13 6 5 7 12 8 2 9 1 10 9 11 10 12 11 13
REMARK H PARENT 11 14
ROOT
ATOM      1  C   UNL     1       8.753   0.302 -15.480  1.00  0.00     0.015 C 
ATOM      2  C   UNL     1       9.841   1.085 -15.544  1.00  0.00     0.094 C 
ENDROOT
BRANCH   1   3
ATOM      3  C   UNL     1       8.081  -0.256 -16.660  1.00  0.00    -0.025 A 
ATOM      4  C   UNL     1       6.769  -1.408 -18.874  1.00  0.00     0.118 A 
ATOM      5  C   UNL     1       7.956  -0.697 -19.052  1.00  0.00     0.047 A 
ATOM      6  C   UNL     1       6.250  -1.550 -17.587  1.00  0.00     0.047 A 
ATOM      7  C   UNL     1       8.610  -0.128 -17.952  1.00  0.00     0.012 A 
ATOM      8  C   UNL     1       6.902  -0.985 -16.486  1.00  0.00     0.012 A 
BRANCH   4   9
ATOM      9  O   UNL     1       6.034  -2.009 -19.858  1.00  0.00    -0.497 OA
ATOM     10  C   UNL     1       6.672  -3.043 -20.596  1.00  0.00     0.278 C 
ENDBRANCH   4   9
ENDBRANCH   1   3
BRANCH   2  11
ATOM     11  C   UNL     1      10.428   1.607 -14.295  1.00  0.00     0.328 C 
ATOM     12  O   UNL     1       9.855   2.347 -13.514  1.00  0.00    -0.247 OA
BRANCH  11  13
ATOM     13  O   UNL     1      11.689   1.169 -14.107  1.00  0.00    -0.478 OA
ATOM     14  H   UNL     1      12.391   1.743 -14.459  1.00  0.00     0.297 HD
ENDBRANCH  11  13
ENDBRANCH   2  11
TORSDOF 4
ENDMDL
MODEL 9
REMARK VINA RESULT:      -5.4     16.853     18.688
REMARK SMILES COc1ccc(C=CC(=O)O)cc1
REMARK SMILES IDX 7 1 8 2 6 3 3 4 4 5 13 6 5 7 12 8 2 9 1 10 9 11 10 12 11 13
REMARK H PARENT 11 14
ROOT
ATOM      1  C   UNL     1      -8.402  -3.975 -29.597  1.00  0.00     0.015 C 
ATOM      2  C   UNL     1      -9.507  -4.456 -30.184  1.00  0.00     0.094 C 
ENDROOT
BRANCH   1   3
ATOM      3  C   UNL     1      -7.687  -2.780 -30.062  1.00  0.00    -0.025 A 
ATOM      4  C   UNL     1      -6.346  -0.504 -31.049  1.00  0.00     0.118 A 
ATOM      5  C   UNL     1      -5.742  -1.314 -30.087  1.00  0.00     0.047 A 
ATOM      6  C   UNL     1      -7.614  -0.843 -31.522  1.00  0.00     0.047 A 
ATOM      7  C   UNL     1      -6.407  -2.447 -29.601  1.00  0.00     0.012 A 
ATOM      8  C   UNL     1      -8.279  -1.975 -31.039  1.00  0.00     0.012 A 
BRANCH   4   9
ATOM      9  O   UNL     1      -5.811   0.624 -31.604  1.00  0.00    -0.497 OA
ATOM     10  C   UNL     1      -6.719   1.539 -32.204  1.00  0.00     0.278 C 
ENDBRANCH   4   9
ENDBRANCH   1   3
BRANCH   2  11
ATOM     11  C   UNL     1     -10.138  -5.676 -29.645  1.00  0.00     0.328 C 
ATOM     12  O   UNL     1     -11.111  -6.227 -30.129  1.00  0.00    -0.247 OA
BRANCH  11  13
ATOM     13  O   UNL     1      -9.509  -6.125 -28.540  1.00  0.00    -0.478 OA
ATOM     14  H   UNL     1     -10.073  -6.250 -27.757  1.00  0.00     0.297 HD
ENDBRANCH  11  13
ENDBRANCH   2  11
TORSDOF 4
ENDMDL
MODEL 10
REMARK VINA RESULT:      -5.4     14.530     17.833
REMARK SMILES COc1ccc(C=CC(=O)O)cc1
REMARK SMILES IDX 7 1 8 2 6 3 3 4 4 5 13 6 5 7 12 8 2 9 1 10 9 11 10 12 11 13
REMARK H PARENT 11 14
ROOT
ATOM      1  C   UNL     1      -5.254  -0.563 -30.409  1.00  0.00     0.015 C 
ATOM      2  C   UNL     1      -4.044  -1.139 -30.348  1.00  0.00     0.094 C 
ENDROOT
BRANCH   1   3
ATOM      3  C   UNL     1      -6.509  -1.316 -30.526  1.00  0.00    -0.025 A 
ATOM      4  C   UNL     1      -8.868  -2.846 -30.744  1.00  0.00     0.118 A 
ATOM      5  C   UNL     1      -8.696  -1.704 -31.527  1.00  0.00     0.047 A 
ATOM      6  C   UNL     1      -7.853  -3.224 -29.863  1.00  0.00     0.047 A 
ATOM      7  C   UNL     1      -7.522  -0.947 -31.421  1.00  0.00     0.012 A 
ATOM      8  C   UNL     1      -6.679  -2.471 -29.758  1.00  0.00     0.012 A 
BRANCH   4   9
ATOM      9  O   UNL     1      -9.958  -3.669 -30.748  1.00  0.00    -0.497 OA
ATOM     10  C   UNL     1      -9.851  -4.884 -30.016  1.00  0.00     0.278 C 
ENDBRANCH   4   9
ENDBRANCH   1   3
BRANCH   2  11
ATOM     11  C   UNL     1      -2.844  -0.287 -30.249  1.00  0.00     0.328 C 
ATOM     12  O   UNL     1      -2.276  -0.006 -29.208  1.00  0.00    -0.247 OA
BRANCH  11  13
ATOM     13  O   UNL     1      -2.434   0.153 -31.455  1.00  0.00    -0.478 OA
ATOM     14  H   UNL     1      -2.900   0.936 -31.798  1.00  0.00     0.297 HD
ENDBRANCH  11  13
ENDBRANCH   2  11
TORSDOF 4
ENDMDL
