MODEL 1
REMARK VINA RESULT:      -5.4      0.000      0.000
REMARK SMILES C[C@@H]1C[C@@H]2CC[C@@]1(C)[C@@H]2O
REMARK SMILES IDX 1 1 2 2 3 3 4 4 5 5 6 6 7 7 8 8 9 9 10 10
REMARK H PARENT 10 11
ROOT
ATOM      1  C   UNL     1      -5.829  -2.004 -28.767  1.00  0.00     0.008 C 
ATOM      2  C   UNL     1      -4.700  -1.639 -29.723  1.00  0.00    -0.005 C 
ATOM      3  C   UNL     1      -3.302  -1.773 -29.082  1.00  0.00     0.010 C 
ATOM      4  C   UNL     1      -2.641  -0.416 -29.402  1.00  0.00     0.019 C 
ATOM      5  C   UNL     1      -3.271   0.645 -28.480  1.00  0.00     0.007 C 
ATOM      6  C   UNL     1      -4.675   0.835 -29.085  1.00  0.00     0.010 C 
ATOM      7  C   UNL     1      -4.690  -0.176 -30.257  1.00  0.00    -0.004 C 
ATOM      8  C   UNL     1      -5.761   0.105 -31.292  1.00  0.00     0.014 C 
ATOM      9  C   UNL     1      -3.239  -0.025 -30.758  1.00  0.00     0.123 C 
ENDROOT
BRANCH   9  10
ATOM     10  O   UNL     1      -2.881  -0.863 -31.836  1.00  0.00    -0.392 OA
ATOM     11  H   UNL     1      -3.593  -1.495 -32.021  1.00  0.00     0.210 HD
ENDBRANCH   9  10
TORSDOF 1
ENDMDL
MODEL 2
REMARK VINA RESULT:      -5.2      0.962      2.782
REMARK SMILES C[C@@H]1C[C@@H]2CC[C@@]1(C)[C@@H]2O
REMARK SMILES IDX 1 1 2 2 3 3 4 4 5 5 6 6 7 7 8 8 9 9 10 10
REMARK H PARENT 10 11
ROOT
ATOM      1  C   UNL     1      -4.768   1.796 -28.566  1.00  0.00     0.008 C 
ATOM      2  C   UNL     1      -4.348   0.797 -29.637  1.00  0.00    -0.005 C 
ATOM      3  C   UNL     1      -5.517  -0.081 -30.132  1.00  0.00     0.010 C 
ATOM      4  C   UNL     1      -4.950  -1.512 -30.020  1.00  0.00     0.019 C 
ATOM      5  C   UNL     1      -4.925  -1.894 -28.528  1.00  0.00     0.007 C 
ATOM      6  C   UNL     1      -3.757  -1.055 -27.978  1.00  0.00     0.010 C 
ATOM      7  C   UNL     1      -3.283  -0.260 -29.220  1.00  0.00    -0.004 C 
ATOM      8  C   UNL     1      -1.882   0.303 -29.086  1.00  0.00     0.014 C 
ATOM      9  C   UNL     1      -3.454  -1.339 -30.308  1.00  0.00     0.123 C 
ENDROOT
BRANCH   9  10
ATOM     10  O   UNL     1      -3.139  -0.930 -31.621  1.00  0.00    -0.392 OA
ATOM     11  H   UNL     1      -3.933  -0.948 -32.178  1.00  0.00     0.210 HD
ENDBRANCH   9  10
TORSDOF 1
ENDMDL
MODEL 3
REMARK VINA RESULT:      -5.1      4.583      6.025
REMARK SMILES C[C@@H]1C[C@@H]2CC[C@@]1(C)[C@@H]2O
REMARK SMILES IDX 1 1 2 2 3 3 4 4 5 5 6 6 7 7 8 8 9 9 10 10
REMARK H PARENT 10 11
ROOT
ATOM      1  C   UNL     1      -7.419   2.041 -30.871  1.00  0.00     0.008 C 
ATOM      2  C   UNL     1      -7.809   0.695 -31.467  1.00  0.00    -0.005 C 
ATOM      3  C   UNL     1      -7.560   0.616 -32.989  1.00  0.00     0.010 C 
ATOM      4  C   UNL     1      -8.907   0.100 -33.536  1.00  0.00     0.019 C 
ATOM      5  C   UNL     1      -9.917   1.262 -33.477  1.00  0.00     0.007 C 
ATOM      6  C   UNL     1     -10.220   1.378 -31.972  1.00  0.00     0.010 C 
ATOM      7  C   UNL     1      -9.309   0.292 -31.348  1.00  0.00    -0.004 C 
ATOM      8  C   UNL     1      -9.722  -0.121 -29.949  1.00  0.00     0.014 C 
ATOM      9  C   UNL     1      -9.435  -0.809 -32.420  1.00  0.00     0.123 C 
ENDROOT
BRANCH   9  10
ATOM     10  O   UNL     1      -8.673  -1.973 -32.184  1.00  0.00    -0.392 OA
ATOM     11  H   UNL     1      -7.800  -1.737 -31.834  1.00  0.00     0.210 HD
ENDBRANCH   9  10
TORSDOF 1
ENDMDL
MODEL 4
REMARK VINA RESULT:      -5.1      2.272      3.311
REMARK SMILES C[C@@H]1C[C@@H]2CC[C@@]1(C)[C@@H]2O
REMARK SMILES IDX 1 1 2 2 3 3 4 4 5 5 6 6 7 7 8 8 9 9 10 10
REMARK H PARENT 10 11
ROOT
ATOM      1  C   UNL     1      -5.564  -0.401 -30.340  1.00  0.00     0.008 C 
ATOM      2  C   UNL     1      -5.203   0.048 -28.930  1.00  0.00    -0.005 C 
ATOM      3  C   UNL     1      -4.478   1.412 -28.901  1.00  0.00     0.010 C 
ATOM      4  C   UNL     1      -3.235   1.127 -28.031  1.00  0.00     0.019 C 
ATOM      5  C   UNL     1      -2.247   0.302 -28.877  1.00  0.00     0.007 C 
ATOM      6  C   UNL     1      -2.913  -1.086 -28.927  1.00  0.00     0.010 C 
ATOM      7  C   UNL     1      -4.227  -0.871 -28.138  1.00  0.00    -0.004 C 
ATOM      8  C   UNL     1      -4.862  -2.158 -27.648  1.00  0.00     0.014 C 
ATOM      9  C   UNL     1      -3.721   0.073 -27.028  1.00  0.00     0.123 C 
ENDROOT
BRANCH   9  10
ATOM     10  O   UNL     1      -4.703   0.519 -26.119  1.00  0.00    -0.392 OA
ATOM     11  H   UNL     1      -4.735  -0.067 -25.346  1.00  0.00     0.210 HD
ENDBRANCH   9  10
TORSDOF 1
ENDMDL
MODEL 5
REMARK VINA RESULT:      -5.1      1.607      3.040
REMARK SMILES C[C@@H]1C[C@@H]2CC[C@@]1(C)[C@@H]2O
REMARK SMILES IDX 1 1 2 2 3 3 4 4 5 5 6 6 7 7 8 8 9 9 10 10
REMARK H PARENT 10 11
ROOT
ATOM      1  C   UNL     1      -4.555  -0.218 -26.441  1.00  0.00     0.008 C 
ATOM      2  C   UNL     1      -4.453   0.503 -27.779  1.00  0.00    -0.005 C 
ATOM      3  C   UNL     1      -5.648   0.210 -28.712  1.00  0.00     0.010 C 
ATOM      4  C   UNL     1      -4.965  -0.196 -30.035  1.00  0.00     0.019 C 
ATOM      5  C   UNL     1      -4.394  -1.616 -29.855  1.00  0.00     0.007 C 
ATOM      6  C   UNL     1      -3.178  -1.384 -28.939  1.00  0.00     0.010 C 
ATOM      7  C   UNL     1      -3.229   0.140 -28.671  1.00  0.00    -0.004 C 
ATOM      8  C   UNL     1      -1.918   0.716 -28.174  1.00  0.00     0.014 C 
ATOM      9  C   UNL     1      -3.679   0.640 -30.059  1.00  0.00     0.123 C 
ENDROOT
BRANCH   9  10
ATOM     10  O   UNL     1      -3.872   2.033 -30.166  1.00  0.00    -0.392 OA
ATOM     11  H   UNL     1      -4.653   2.223 -30.710  1.00  0.00     0.210 HD
ENDBRANCH   9  10
TORSDOF 1
ENDMDL
MODEL 6
REMARK VINA RESULT:      -5.0      1.589      3.065
REMARK SMILES C[C@@H]1C[C@@H]2CC[C@@]1(C)[C@@H]2O
REMARK SMILES IDX 1 1 2 2 3 3 4 4 5 5 6 6 7 7 8 8 9 9 10 10
REMARK H PARENT 10 11
ROOT
ATOM      1  C   UNL     1      -1.960   0.799 -28.188  1.00  0.00     0.008 C 
ATOM      2  C   UNL     1      -3.376   0.722 -28.744  1.00  0.00    -0.005 C 
ATOM      3  C   UNL     1      -4.446   0.556 -27.644  1.00  0.00     0.010 C 
ATOM      4  C   UNL     1      -5.277  -0.644 -28.144  1.00  0.00     0.019 C 
ATOM      5  C   UNL     1      -4.444  -1.921 -27.921  1.00  0.00     0.007 C 
ATOM      6  C   UNL     1      -3.360  -1.819 -29.010  1.00  0.00     0.010 C 
ATOM      7  C   UNL     1      -3.682  -0.470 -29.698  1.00  0.00    -0.004 C 
ATOM      8  C   UNL     1      -3.066  -0.325 -31.076  1.00  0.00     0.014 C 
ATOM      9  C   UNL     1      -5.223  -0.518 -29.672  1.00  0.00     0.123 C 
ENDROOT
BRANCH   9  10
ATOM     10  O   UNL     1      -5.873   0.616 -30.203  1.00  0.00    -0.392 OA
ATOM     11  H   UNL     1      -6.311   1.114 -29.495  1.00  0.00     0.210 HD
ENDBRANCH   9  10
TORSDOF 1
ENDMDL
MODEL 7
REMARK VINA RESULT:      -5.0      4.174      6.094
REMARK SMILES C[C@@H]1C[C@@H]2CC[C@@]1(C)[C@@H]2O
REMARK SMILES IDX 1 1 2 2 3 3 4 4 5 5 6 6 7 7 8 8 9 9 10 10
REMARK H PARENT 10 11
ROOT
ATOM      1  C   UNL     1     -10.497  -0.190 -30.420  1.00  0.00     0.008 C 
ATOM      2  C   UNL     1      -9.407   0.670 -31.046  1.00  0.00    -0.005 C 
ATOM      3  C   UNL     1      -9.971   1.831 -31.894  1.00  0.00     0.010 C 
ATOM      4  C   UNL     1      -9.207   1.691 -33.228  1.00  0.00     0.019 C 
ATOM      5  C   UNL     1      -9.792   0.482 -33.982  1.00  0.00     0.007 C 
ATOM      6  C   UNL     1      -9.246  -0.717 -33.186  1.00  0.00     0.010 C 
ATOM      7  C   UNL     1      -8.447  -0.043 -32.043  1.00  0.00    -0.004 C 
ATOM      8  C   UNL     1      -7.444  -0.963 -31.375  1.00  0.00     0.014 C 
ATOM      9  C   UNL     1      -7.835   1.146 -32.811  1.00  0.00     0.123 C 
ENDROOT
BRANCH   9  10
ATOM     10  O   UNL     1      -7.050   2.026 -32.037  1.00  0.00    -0.392 OA
ATOM     11  H   UNL     1      -7.257   2.946 -32.262  1.00  0.00     0.210 HD
ENDBRANCH   9  10
TORSDOF 1
ENDMDL
MODEL 8
REMARK VINA RESULT:      -5.0      1.852      2.438
REMARK SMILES C[C@@H]1C[C@@H]2CC[C@@]1(C)[C@@H]2O
REMARK SMILES IDX 1 1 2 2 3 3 4 4 5 5 6 6 7 7 8 8 9 9 10 10
REMARK H PARENT 10 11
ROOT
ATOM      1  C   UNL     1      -3.563  -1.642 -29.870  1.00  0.00     0.008 C 
ATOM      2  C   UNL     1      -3.373  -0.143 -29.680  1.00  0.00    -0.005 C 
ATOM      3  C   UNL     1      -2.167   0.201 -28.780  1.00  0.00     0.010 C 
ATOM      4  C   UNL     1      -2.769   1.178 -27.748  1.00  0.00     0.019 C 
ATOM      5  C   UNL     1      -3.627   0.358 -26.766  1.00  0.00     0.007 C 
ATOM      6  C   UNL     1      -4.864  -0.003 -27.608  1.00  0.00     0.010 C 
ATOM      7  C   UNL     1      -4.541   0.621 -28.988  1.00  0.00    -0.004 C 
ATOM      8  C   UNL     1      -5.758   0.809 -29.872  1.00  0.00     0.014 C 
ATOM      9  C   UNL     1      -3.852   1.925 -28.536  1.00  0.00     0.123 C 
ENDROOT
BRANCH   9  10
ATOM     10  O   UNL     1      -3.375   2.749 -29.576  1.00  0.00    -0.392 OA
ATOM     11  H   UNL     1      -4.117   3.095 -30.098  1.00  0.00     0.210 HD
ENDBRANCH   9  10
TORSDOF 1
ENDMDL
MODEL 9
REMARK VINA RESULT:      -5.0      1.277      1.864
REMARK SMILES C[C@@H]1C[C@@H]2CC[C@@]1(C)[C@@H]2O
REMARK SMILES IDX 1 1 2 2 3 3 4 4 5 5 6 6 7 7 8 8 9 9 10 10
REMARK H PARENT 10 11
ROOT
ATOM      1  C   UNL     1      -6.063  -0.536 -30.753  1.00  0.00     0.008 C 
ATOM      2  C   UNL     1      -4.564  -0.386 -30.524  1.00  0.00    -0.005 C 
ATOM      3  C   UNL     1      -3.891  -1.699 -30.069  1.00  0.00     0.010 C 
ATOM      4  C   UNL     1      -3.092  -1.267 -28.822  1.00  0.00     0.019 C 
ATOM      5  C   UNL     1      -4.093  -1.051 -27.671  1.00  0.00     0.007 C 
ATOM      6  C   UNL     1      -4.789   0.266 -28.064  1.00  0.00     0.010 C 
ATOM      7  C   UNL     1      -4.128   0.620 -29.418  1.00  0.00    -0.004 C 
ATOM      8  C   UNL     1      -4.291   2.074 -29.815  1.00  0.00     0.014 C 
ATOM      9  C   UNL     1      -2.679   0.178 -29.131  1.00  0.00     0.123 C 
ENDROOT
BRANCH   9  10
ATOM     10  O   UNL     1      -1.777   0.326 -30.206  1.00  0.00    -0.392 OA
ATOM     11  H   UNL     1      -2.025   1.090 -30.749  1.00  0.00     0.210 HD
ENDBRANCH   9  10
TORSDOF 1
ENDMDL
MODEL 10
REMARK VINA RESULT:      -4.9      3.945      5.677
REMARK SMILES C[C@@H]1C[C@@H]2CC[C@@]1(C)[C@@H]2O
REMARK SMILES IDX 1 1 2 2 3 3 4 4 5 5 6 6 7 7 8 8 9 9 10 10
REMARK H PARENT 10 11
ROOT
ATOM      1  C   UNL     1      -6.597  -0.924 -30.908  1.00  0.00     0.008 C 
ATOM      2  C   UNL     1      -7.993  -0.365 -31.146  1.00  0.00    -0.005 C 
ATOM      3  C   UNL     1      -8.755  -1.105 -32.267  1.00  0.00     0.010 C 
ATOM      4  C   UNL     1      -9.249   0.045 -33.170  1.00  0.00     0.019 C 
ATOM      5  C   UNL     1      -8.038   0.579 -33.959  1.00  0.00     0.007 C 
ATOM      6  C   UNL     1      -7.242   1.348 -32.888  1.00  0.00     0.010 C 
ATOM      7  C   UNL     1      -8.077   1.121 -31.603  1.00  0.00    -0.004 C 
ATOM      8  C   UNL     1      -7.782   2.118 -30.500  1.00  0.00     0.014 C 
ATOM      9  C   UNL     1      -9.500   1.199 -32.193  1.00  0.00     0.123 C 
ENDROOT
BRANCH   9  10
ATOM     10  O   UNL     1     -10.548   0.989 -31.273  1.00  0.00    -0.392 OA
ATOM     11  H   UNL     1     -11.179   1.726 -31.308  1.00  0.00     0.210 HD
ENDBRANCH   9  10
TORSDOF 1
ENDMDL
