MODEL 1
REMARK VINA RESULT:      -5.8      0.000      0.000
REMARK SMILES C[C@@H]1C[C@@H]2CC[C@@]1(C)C2=O
REMARK SMILES IDX 1 1 2 2 3 3 4 4 5 5 6 6 7 7 8 8 9 9 10 10
REMARK H PARENT
ROOT
ATOM      1  C   UNL     1      -7.174   0.031 -31.737  1.00  0.00     0.009 C 
ATOM      2  C   UNL     1      -8.529  -0.455 -32.234  1.00  0.00    -0.000 C 
ATOM      3  C   UNL     1      -8.754  -0.159 -33.746  1.00  0.00     0.015 C 
ATOM      4  C   UNL     1     -10.119   0.546 -33.805  1.00  0.00     0.057 C 
ATOM      5  C   UNL     1      -9.987   1.955 -33.207  1.00  0.00     0.012 C 
ATOM      6  C   UNL     1      -9.784   1.718 -31.691  1.00  0.00     0.015 C 
ATOM      7  C   UNL     1      -9.762   0.182 -31.536  1.00  0.00     0.029 C 
ATOM      8  C   UNL     1     -10.082  -0.335 -30.157  1.00  0.00     0.020 C 
ATOM      9  C   UNL     1     -10.751  -0.119 -32.625  1.00  0.00     0.142 C 
ATOM     10  O   UNL     1     -11.792  -0.741 -32.573  1.00  0.00    -0.299 OA
ENDROOT
TORSDOF 0
ENDMDL
MODEL 2
REMARK VINA RESULT:      -5.3      5.491      6.969
REMARK SMILES C[C@@H]1C[C@@H]2CC[C@@]1(C)C2=O
REMARK SMILES IDX 1 1 2 2 3 3 4 4 5 5 6 6 7 7 8 8 9 9 10 10
REMARK H PARENT
ROOT
ATOM      1  C   UNL     1      -2.301   0.947 -28.116  1.00  0.00     0.009 C 
ATOM      2  C   UNL     1      -3.575   0.685 -28.909  1.00  0.00    -0.000 C 
ATOM      3  C   UNL     1      -4.815   0.470 -27.995  1.00  0.00     0.015 C 
ATOM      4  C   UNL     1      -5.442  -0.843 -28.494  1.00  0.00     0.057 C 
ATOM      5  C   UNL     1      -4.533  -2.018 -28.103  1.00  0.00     0.012 C 
ATOM      6  C   UNL     1      -3.285  -1.863 -29.006  1.00  0.00     0.015 C 
ATOM      7  C   UNL     1      -3.548  -0.575 -29.815  1.00  0.00     0.029 C 
ATOM      8  C   UNL     1      -2.772  -0.450 -31.102  1.00  0.00     0.020 C 
ATOM      9  C   UNL     1      -5.036  -0.739 -29.929  1.00  0.00     0.142 C 
ATOM     10  O   UNL     1      -5.737  -0.774 -30.919  1.00  0.00    -0.299 OA
ENDROOT
TORSDOF 0
ENDMDL
MODEL 3
REMARK VINA RESULT:      -5.2      5.260      6.677
REMARK SMILES C[C@@H]1C[C@@H]2CC[C@@]1(C)C2=O
REMARK SMILES IDX 1 1 2 2 3 3 4 4 5 5 6 6 7 7 8 8 9 9 10 10
REMARK H PARENT
ROOT
ATOM      1  C   UNL     1      -2.190   0.286 -28.936  1.00  0.00     0.009 C 
ATOM      2  C   UNL     1      -3.086  -0.888 -28.563  1.00  0.00    -0.000 C 
ATOM      3  C   UNL     1      -3.524  -1.723 -29.801  1.00  0.00     0.015 C 
ATOM      4  C   UNL     1      -5.053  -1.826 -29.679  1.00  0.00     0.057 C 
ATOM      5  C   UNL     1      -5.678  -0.453 -29.966  1.00  0.00     0.012 C 
ATOM      6  C   UNL     1      -5.289   0.417 -28.746  1.00  0.00     0.015 C 
ATOM      7  C   UNL     1      -4.422  -0.512 -27.868  1.00  0.00     0.029 C 
ATOM      8  C   UNL     1      -4.326  -0.123 -26.415  1.00  0.00     0.020 C 
ATOM      9  C   UNL     1      -5.149  -1.786 -28.188  1.00  0.00     0.142 C 
ATOM     10  O   UNL     1      -5.675  -2.584 -27.440  1.00  0.00    -0.299 OA
ENDROOT
TORSDOF 0
ENDMDL
MODEL 4
REMARK VINA RESULT:      -5.2      1.855      2.938
REMARK SMILES C[C@@H]1C[C@@H]2CC[C@@]1(C)C2=O
REMARK SMILES IDX 1 1 2 2 3 3 4 4 5 5 6 6 7 7 8 8 9 9 10 10
REMARK H PARENT
ROOT
ATOM      1  C   UNL     1     -10.358  -0.090 -30.300  1.00  0.00     0.009 C 
ATOM      2  C   UNL     1      -9.375   0.736 -31.120  1.00  0.00    -0.000 C 
ATOM      3  C   UNL     1     -10.084   1.784 -32.026  1.00  0.00     0.015 C 
ATOM      4  C   UNL     1      -9.493   1.550 -33.426  1.00  0.00     0.057 C 
ATOM      5  C   UNL     1     -10.019   0.219 -33.983  1.00  0.00     0.012 C 
ATOM      6  C   UNL     1      -9.322  -0.866 -33.126  1.00  0.00     0.015 C 
ATOM      7  C   UNL     1      -8.483  -0.072 -32.101  1.00  0.00     0.029 C 
ATOM      8  C   UNL     1      -7.333  -0.826 -31.484  1.00  0.00     0.020 C 
ATOM      9  C   UNL     1      -8.139   1.076 -33.007  1.00  0.00     0.142 C 
ATOM     10  O   UNL     1      -7.051   1.514 -33.320  1.00  0.00    -0.299 OA
ENDROOT
TORSDOF 0
ENDMDL
MODEL 5
REMARK VINA RESULT:      -5.2      6.204      7.280
REMARK SMILES C[C@@H]1C[C@@H]2CC[C@@]1(C)C2=O
REMARK SMILES IDX 1 1 2 2 3 3 4 4 5 5 6 6 7 7 8 8 9 9 10 10
REMARK H PARENT
ROOT
ATOM      1  C   UNL     1      -4.561  -2.113 -27.437  1.00  0.00     0.009 C 
ATOM      2  C   UNL     1      -4.449  -1.166 -28.624  1.00  0.00    -0.000 C 
ATOM      3  C   UNL     1      -3.118  -1.347 -29.411  1.00  0.00     0.015 C 
ATOM      4  C   UNL     1      -2.535   0.072 -29.519  1.00  0.00     0.057 C 
ATOM      5  C   UNL     1      -2.044   0.524 -28.135  1.00  0.00     0.012 C 
ATOM      6  C   UNL     1      -3.338   0.741 -27.313  1.00  0.00     0.015 C 
ATOM      7  C   UNL     1      -4.480   0.347 -28.275  1.00  0.00     0.029 C 
ATOM      8  C   UNL     1      -5.833   0.923 -27.943  1.00  0.00     0.020 C 
ATOM      9  C   UNL     1      -3.823   0.829 -29.536  1.00  0.00     0.142 C 
ATOM     10  O   UNL     1      -4.225   1.623 -30.362  1.00  0.00    -0.299 OA
ENDROOT
TORSDOF 0
ENDMDL
MODEL 6
REMARK VINA RESULT:      -5.2      1.897      2.975
REMARK SMILES C[C@@H]1C[C@@H]2CC[C@@]1(C)C2=O
REMARK SMILES IDX 1 1 2 2 3 3 4 4 5 5 6 6 7 7 8 8 9 9 10 10
REMARK H PARENT
ROOT
ATOM      1  C   UNL     1      -9.617  -1.479 -30.875  1.00  0.00     0.009 C 
ATOM      2  C   UNL     1      -8.692  -0.986 -31.980  1.00  0.00    -0.000 C 
ATOM      3  C   UNL     1      -7.260  -0.664 -31.463  1.00  0.00     0.015 C 
ATOM      4  C   UNL     1      -6.970   0.755 -31.979  1.00  0.00     0.057 C 
ATOM      5  C   UNL     1      -7.837   1.761 -31.207  1.00  0.00     0.012 C 
ATOM      6  C   UNL     1      -9.279   1.497 -31.704  1.00  0.00     0.015 C 
ATOM      7  C   UNL     1      -9.140   0.319 -32.692  1.00  0.00     0.029 C 
ATOM      8  C   UNL     1     -10.259   0.178 -33.692  1.00  0.00     0.020 C 
ATOM      9  C   UNL     1      -7.789   0.696 -33.228  1.00  0.00     0.142 C 
ATOM     10  O   UNL     1      -7.440   0.899 -34.373  1.00  0.00    -0.299 OA
ENDROOT
TORSDOF 0
ENDMDL
MODEL 7
REMARK VINA RESULT:      -5.2      1.315      2.799
REMARK SMILES C[C@@H]1C[C@@H]2CC[C@@]1(C)C2=O
REMARK SMILES IDX 1 1 2 2 3 3 4 4 5 5 6 6 7 7 8 8 9 9 10 10
REMARK H PARENT
ROOT
ATOM      1  C   UNL     1      -7.872   1.470 -30.597  1.00  0.00     0.009 C 
ATOM      2  C   UNL     1      -9.047   1.203 -31.528  1.00  0.00    -0.000 C 
ATOM      3  C   UNL     1     -10.281   0.619 -30.782  1.00  0.00     0.015 C 
ATOM      4  C   UNL     1     -10.667  -0.632 -31.587  1.00  0.00     0.057 C 
ATOM      5  C   UNL     1      -9.603  -1.720 -31.372  1.00  0.00     0.012 C 
ATOM      6  C   UNL     1      -8.353  -1.197 -32.119  1.00  0.00     0.015 C 
ATOM      7  C   UNL     1      -8.776   0.183 -32.667  1.00  0.00     0.029 C 
ATOM      8  C   UNL     1      -7.968   0.692 -33.833  1.00  0.00     0.020 C 
ATOM      9  C   UNL     1     -10.212  -0.166 -32.932  1.00  0.00     0.142 C 
ATOM     10  O   UNL     1     -10.849  -0.089 -33.963  1.00  0.00    -0.299 OA
ENDROOT
TORSDOF 0
ENDMDL
MODEL 8
REMARK VINA RESULT:      -5.2      5.529      6.908
REMARK SMILES C[C@@H]1C[C@@H]2CC[C@@]1(C)C2=O
REMARK SMILES IDX 1 1 2 2 3 3 4 4 5 5 6 6 7 7 8 8 9 9 10 10
REMARK H PARENT
ROOT
ATOM      1  C   UNL     1      -4.542  -0.240 -26.412  1.00  0.00     0.009 C 
ATOM      2  C   UNL     1      -4.781  -0.650 -27.859  1.00  0.00    -0.000 C 
ATOM      3  C   UNL     1      -3.811  -1.773 -28.330  1.00  0.00     0.015 C 
ATOM      4  C   UNL     1      -3.211  -1.241 -29.642  1.00  0.00     0.057 C 
ATOM      5  C   UNL     1      -2.251  -0.084 -29.327  1.00  0.00     0.012 C 
ATOM      6  C   UNL     1      -3.173   1.074 -28.873  1.00  0.00     0.015 C 
ATOM      7  C   UNL     1      -4.596   0.477 -28.910  1.00  0.00     0.029 C 
ATOM      8  C   UNL     1      -5.716   1.480 -29.011  1.00  0.00     0.020 C 
ATOM      9  C   UNL     1      -4.377  -0.423 -30.092  1.00  0.00     0.142 C 
ATOM     10  O   UNL     1      -4.985  -0.483 -31.141  1.00  0.00    -0.299 OA
ENDROOT
TORSDOF 0
ENDMDL
MODEL 9
REMARK VINA RESULT:      -5.2      5.753      7.631
REMARK SMILES C[C@@H]1C[C@@H]2CC[C@@]1(C)C2=O
REMARK SMILES IDX 1 1 2 2 3 3 4 4 5 5 6 6 7 7 8 8 9 9 10 10
REMARK H PARENT
ROOT
ATOM      1  C   UNL     1      -3.645  -1.417 -30.080  1.00  0.00     0.009 C 
ATOM      2  C   UNL     1      -3.205   0.024 -29.859  1.00  0.00    -0.000 C 
ATOM      3  C   UNL     1      -1.963   0.134 -28.927  1.00  0.00     0.015 C 
ATOM      4  C   UNL     1      -2.371   1.162 -27.858  1.00  0.00     0.057 C 
ATOM      5  C   UNL     1      -3.426   0.538 -26.933  1.00  0.00     0.012 C 
ATOM      6  C   UNL     1      -4.697   0.426 -27.810  1.00  0.00     0.015 C 
ATOM      7  C   UNL     1      -4.261   0.949 -29.196  1.00  0.00     0.029 C 
ATOM      8  C   UNL     1      -5.377   1.427 -30.088  1.00  0.00     0.020 C 
ATOM      9  C   UNL     1      -3.294   1.985 -28.697  1.00  0.00     0.142 C 
ATOM     10  O   UNL     1      -3.260   3.178 -28.915  1.00  0.00    -0.299 OA
ENDROOT
TORSDOF 0
ENDMDL
MODEL 10
REMARK VINA RESULT:      -5.2      5.927      6.995
REMARK SMILES C[C@@H]1C[C@@H]2CC[C@@]1(C)C2=O
REMARK SMILES IDX 1 1 2 2 3 3 4 4 5 5 6 6 7 7 8 8 9 9 10 10
REMARK H PARENT
ROOT
ATOM      1  C   UNL     1      -2.276   1.155 -27.766  1.00  0.00     0.009 C 
ATOM      2  C   UNL     1      -2.440  -0.067 -28.660  1.00  0.00    -0.000 C 
ATOM      3  C   UNL     1      -1.903   0.170 -30.102  1.00  0.00     0.015 C 
ATOM      4  C   UNL     1      -3.058  -0.261 -31.022  1.00  0.00     0.057 C 
ATOM      5  C   UNL     1      -4.197   0.765 -30.918  1.00  0.00     0.012 C 
ATOM      6  C   UNL     1      -4.784   0.555 -29.501  1.00  0.00     0.015 C 
ATOM      7  C   UNL     1      -3.901  -0.546 -28.874  1.00  0.00     0.029 C 
ATOM      8  C   UNL     1      -4.525  -1.301 -27.728  1.00  0.00     0.020 C 
ATOM      9  C   UNL     1      -3.649  -1.313 -30.140  1.00  0.00     0.142 C 
ATOM     10  O   UNL     1      -3.862  -2.481 -30.392  1.00  0.00    -0.299 OA
ENDROOT
TORSDOF 0
ENDMDL
