MODEL 1
REMARK VINA RESULT:      -6.0      0.000      0.000
REMARK SMILES COc1ccc(C=O)c(O)c1
REMARK SMILES IDX 3 1 11 2 9 3 6 4 5 5 4 6 2 7 1 8 10 9 7 11 8 12
REMARK H PARENT 10 10
ROOT
ATOM      1  C   UNL     1      -1.267  -9.742 -27.321  1.00  0.00     0.122 A 
ATOM      2  C   UNL     1      -0.368  -9.524 -26.273  1.00  0.00     0.093 A 
ATOM      3  C   UNL     1       0.352 -10.598 -25.737  1.00  0.00     0.129 A 
ATOM      4  C   UNL     1       0.177 -11.889 -26.242  1.00  0.00     0.056 A 
ATOM      5  C   UNL     1      -0.722 -12.109 -27.288  1.00  0.00     0.019 A 
ATOM      6  C   UNL     1      -1.439 -11.035 -27.822  1.00  0.00     0.047 A 
ENDROOT
BRANCH   1   7
ATOM      7  O   UNL     1      -2.030  -8.789 -27.937  1.00  0.00    -0.497 OA
ATOM      8  C   UNL     1      -3.420  -9.054 -28.070  1.00  0.00     0.278 C 
ENDBRANCH   1   7
BRANCH   3   9
ATOM      9  O   UNL     1       1.232 -10.384 -24.712  1.00  0.00    -0.507 OA
ATOM     10  H   UNL     1       1.227  -9.441 -24.472  1.00  0.00     0.293 HD
ENDBRANCH   3   9
BRANCH   4  11
ATOM     11  C   UNL     1       0.934 -13.027 -25.681  1.00  0.00     0.263 C 
ATOM     12  O   UNL     1       1.731 -13.670 -26.356  1.00  0.00    -0.298 OA
ENDBRANCH   4  11
TORSDOF 3
ENDMDL
MODEL 2
REMARK VINA RESULT:      -5.7      1.184      2.082
REMARK SMILES COc1ccc(C=O)c(O)c1
REMARK SMILES IDX 3 1 11 2 9 3 6 4 5 5 4 6 2 7 1 8 10 9 7 11 8 12
REMARK H PARENT 10 10
ROOT
ATOM      1  C   UNL     1      -1.576  -9.835 -27.545  1.00  0.00     0.122 A 
ATOM      2  C   UNL     1      -1.478 -11.207 -27.792  1.00  0.00     0.093 A 
ATOM      3  C   UNL     1      -0.615 -11.994 -27.021  1.00  0.00     0.129 A 
ATOM      4  C   UNL     1       0.152 -11.417 -26.007  1.00  0.00     0.056 A 
ATOM      5  C   UNL     1       0.057 -10.046 -25.760  1.00  0.00     0.019 A 
ATOM      6  C   UNL     1      -0.805  -9.262 -26.529  1.00  0.00     0.047 A 
ENDROOT
BRANCH   1   7
ATOM      7  O   UNL     1      -2.375  -8.952 -28.216  1.00  0.00    -0.497 OA
ATOM      8  C   UNL     1      -3.781  -9.111 -28.080  1.00  0.00     0.278 C 
ENDBRANCH   1   7
BRANCH   3   9
ATOM      9  O   UNL     1      -0.521 -13.337 -27.264  1.00  0.00    -0.507 OA
ATOM     10  H   UNL     1      -1.283 -13.626 -27.793  1.00  0.00     0.293 HD
ENDBRANCH   3   9
BRANCH   4  11
ATOM     11  C   UNL     1       1.065 -12.243 -25.189  1.00  0.00     0.263 C 
ATOM     12  O   UNL     1       0.675 -13.241 -24.593  1.00  0.00    -0.298 OA
ENDBRANCH   4  11
TORSDOF 3
ENDMDL
MODEL 3
REMARK VINA RESULT:      -5.6      2.536      3.797
REMARK SMILES COc1ccc(C=O)c(O)c1
REMARK SMILES IDX 3 1 11 2 9 3 6 4 5 5 4 6 2 7 1 8 10 9 7 11 8 12
REMARK H PARENT 10 10
ROOT
ATOM      1  C   UNL     1      -4.173  -9.942 -27.251  1.00  0.00     0.122 A 
ATOM      2  C   UNL     1      -3.165 -10.836 -27.624  1.00  0.00     0.093 A 
ATOM      3  C   UNL     1      -1.831 -10.412 -27.646  1.00  0.00     0.129 A 
ATOM      4  C   UNL     1      -1.500  -9.100 -27.300  1.00  0.00     0.056 A 
ATOM      5  C   UNL     1      -2.505  -8.205 -26.928  1.00  0.00     0.019 A 
ATOM      6  C   UNL     1      -3.836  -8.630 -26.906  1.00  0.00     0.047 A 
ENDROOT
BRANCH   1   7
ATOM      7  O   UNL     1      -5.510 -10.220 -27.185  1.00  0.00    -0.497 OA
ATOM      8  C   UNL     1      -5.921 -11.229 -26.273  1.00  0.00     0.278 C 
ENDBRANCH   1   7
BRANCH   3   9
ATOM      9  O   UNL     1      -0.846 -11.288 -28.011  1.00  0.00    -0.507 OA
ATOM     10  H   UNL     1       0.004 -10.817 -28.064  1.00  0.00     0.293 HD
ENDBRANCH   3   9
BRANCH   4  11
ATOM     11  C   UNL     1      -0.093  -8.648 -27.320  1.00  0.00     0.263 C 
ATOM     12  O   UNL     1       0.821  -9.355 -26.909  1.00  0.00    -0.298 OA
ENDBRANCH   4  11
TORSDOF 3
ENDMDL
MODEL 4
REMARK VINA RESULT:      -5.5      1.059      4.274
REMARK SMILES COc1ccc(C=O)c(O)c1
REMARK SMILES IDX 3 1 11 2 9 3 6 4 5 5 4 6 2 7 1 8 10 9 7 11 8 12
REMARK H PARENT 10 10
ROOT
ATOM      1  C   UNL     1       0.234 -11.581 -26.053  1.00  0.00     0.122 A 
ATOM      2  C   UNL     1      -0.147 -10.305 -25.630  1.00  0.00     0.093 A 
ATOM      3  C   UNL     1      -1.168  -9.625 -26.303  1.00  0.00     0.129 A 
ATOM      4  C   UNL     1      -1.808 -10.212 -27.397  1.00  0.00     0.056 A 
ATOM      5  C   UNL     1      -1.427 -11.486 -27.822  1.00  0.00     0.019 A 
ATOM      6  C   UNL     1      -0.408 -12.164 -27.149  1.00  0.00     0.047 A 
ENDROOT
BRANCH   1   7
ATOM      7  O   UNL     1       1.210 -12.356 -25.490  1.00  0.00    -0.497 OA
ATOM      8  C   UNL     1       0.808 -13.295 -24.501  1.00  0.00     0.278 C 
ENDBRANCH   1   7
BRANCH   3   9
ATOM      9  O   UNL     1      -1.542  -8.376 -25.888  1.00  0.00    -0.507 OA
ATOM     10  H   UNL     1      -0.749  -7.844 -25.703  1.00  0.00     0.293 HD
ENDBRANCH   3   9
BRANCH   4  11
ATOM     11  C   UNL     1      -2.888  -9.499 -28.111  1.00  0.00     0.263 C 
ATOM     12  O   UNL     1      -2.757  -8.340 -28.492  1.00  0.00    -0.298 OA
ENDBRANCH   4  11
TORSDOF 3
ENDMDL
MODEL 5
REMARK VINA RESULT:      -5.4     14.433     16.067
REMARK SMILES COc1ccc(C=O)c(O)c1
REMARK SMILES IDX 3 1 11 2 9 3 6 4 5 5 4 6 2 7 1 8 10 9 7 11 8 12
REMARK H PARENT 10 10
ROOT
ATOM      1  C   UNL     1       8.108   0.147 -16.583  1.00  0.00     0.122 A 
ATOM      2  C   UNL     1       7.091  -0.768 -16.297  1.00  0.00     0.093 A 
ATOM      3  C   UNL     1       6.542  -1.543 -17.326  1.00  0.00     0.129 A 
ATOM      4  C   UNL     1       7.002  -1.407 -18.637  1.00  0.00     0.056 A 
ATOM      5  C   UNL     1       8.017  -0.491 -18.925  1.00  0.00     0.019 A 
ATOM      6  C   UNL     1       8.565   0.280 -17.897  1.00  0.00     0.047 A 
ENDROOT
BRANCH   1   7
ATOM      7  O   UNL     1       8.732   0.963 -15.681  1.00  0.00    -0.497 OA
ATOM      8  C   UNL     1      10.112   0.726 -15.433  1.00  0.00     0.278 C 
ENDBRANCH   1   7
BRANCH   3   9
ATOM      9  O   UNL     1       5.547  -2.439 -17.045  1.00  0.00    -0.507 OA
ATOM     10  H   UNL     1       5.897  -3.144 -16.474  1.00  0.00     0.293 HD
ENDBRANCH   3   9
BRANCH   4  11
ATOM     11  C   UNL     1       6.427  -2.222 -19.727  1.00  0.00     0.263 C 
ATOM     12  O   UNL     1       6.426  -3.448 -19.687  1.00  0.00    -0.298 OA
ENDBRANCH   4  11
TORSDOF 3
ENDMDL
MODEL 6
REMARK VINA RESULT:      -5.4     12.385     14.939
REMARK SMILES COc1ccc(C=O)c(O)c1
REMARK SMILES IDX 3 1 11 2 9 3 6 4 5 5 4 6 2 7 1 8 10 9 7 11 8 12
REMARK H PARENT 10 10
ROOT
ATOM      1  C   UNL     1      -6.468   0.329 -31.659  1.00  0.00     0.122 A 
ATOM      2  C   UNL     1      -7.387  -0.678 -31.349  1.00  0.00     0.093 A 
ATOM      3  C   UNL     1      -8.609  -0.739 -32.028  1.00  0.00     0.129 A 
ATOM      4  C   UNL     1      -8.919   0.202 -33.013  1.00  0.00     0.056 A 
ATOM      5  C   UNL     1      -8.003   1.210 -33.322  1.00  0.00     0.019 A 
ATOM      6  C   UNL     1      -6.783   1.268 -32.644  1.00  0.00     0.047 A 
ENDROOT
BRANCH   1   7
ATOM      7  O   UNL     1      -5.243   0.505 -31.079  1.00  0.00    -0.497 OA
ATOM      8  C   UNL     1      -4.719  -0.576 -30.320  1.00  0.00     0.278 C 
ENDBRANCH   1   7
BRANCH   3   9
ATOM      9  O   UNL     1      -9.508  -1.725 -31.725  1.00  0.00    -0.507 OA
ATOM     10  H   UNL     1      -9.737  -2.215 -32.533  1.00  0.00     0.293 HD
ENDBRANCH   3   9
BRANCH   4  11
ATOM     11  C   UNL     1     -10.208   0.143 -33.734  1.00  0.00     0.263 C 
ATOM     12  O   UNL     1     -11.281   0.117 -33.140  1.00  0.00    -0.298 OA
ENDBRANCH   4  11
TORSDOF 3
ENDMDL
MODEL 7
REMARK VINA RESULT:      -5.3     13.340     14.923
REMARK SMILES COc1ccc(C=O)c(O)c1
REMARK SMILES IDX 3 1 11 2 9 3 6 4 5 5 4 6 2 7 1 8 10 9 7 11 8 12
REMARK H PARENT 10 10
ROOT
ATOM      1  C   UNL     1       6.525  -2.543 -19.348  1.00  0.00     0.122 A 
ATOM      2  C   UNL     1       5.955  -2.516 -18.072  1.00  0.00     0.093 A 
ATOM      3  C   UNL     1       6.377  -1.560 -17.142  1.00  0.00     0.129 A 
ATOM      4  C   UNL     1       7.366  -0.632 -17.478  1.00  0.00     0.056 A 
ATOM      5  C   UNL     1       7.938  -0.660 -18.752  1.00  0.00     0.019 A 
ATOM      6  C   UNL     1       7.516  -1.614 -19.680  1.00  0.00     0.047 A 
ENDROOT
BRANCH   1   7
ATOM      7  O   UNL     1       6.209  -3.417 -20.352  1.00  0.00    -0.497 OA
ATOM      8  C   UNL     1       5.496  -2.900 -21.466  1.00  0.00     0.278 C 
ENDBRANCH   1   7
BRANCH   3   9
ATOM      9  O   UNL     1       5.817  -1.533 -15.894  1.00  0.00    -0.507 OA
ATOM     10  H   UNL     1       4.969  -1.057 -15.928  1.00  0.00     0.293 HD
ENDBRANCH   3   9
BRANCH   4  11
ATOM     11  C   UNL     1       7.815   0.380 -16.500  1.00  0.00     0.263 C 
ATOM     12  O   UNL     1       8.488   0.079 -15.519  1.00  0.00    -0.298 OA
ENDBRANCH   4  11
TORSDOF 3
ENDMDL
MODEL 8
REMARK VINA RESULT:      -5.2     10.201     11.350
REMARK SMILES COc1ccc(C=O)c(O)c1
REMARK SMILES IDX 3 1 11 2 9 3 6 4 5 5 4 6 2 7 1 8 10 9 7 11 8 12
REMARK H PARENT 10 10
ROOT
ATOM      1  C   UNL     1      -5.094  -1.402 -26.222  1.00  0.00     0.122 A 
ATOM      2  C   UNL     1      -4.595  -0.098 -26.282  1.00  0.00     0.093 A 
ATOM      3  C   UNL     1      -3.817   0.300 -27.376  1.00  0.00     0.129 A 
ATOM      4  C   UNL     1      -3.534  -0.598 -28.407  1.00  0.00     0.056 A 
ATOM      5  C   UNL     1      -4.030  -1.902 -28.348  1.00  0.00     0.019 A 
ATOM      6  C   UNL     1      -4.807  -2.298 -27.256  1.00  0.00     0.047 A 
ENDROOT
BRANCH   1   7
ATOM      7  O   UNL     1      -5.863  -1.923 -25.219  1.00  0.00    -0.497 OA
ATOM      8  C   UNL     1      -6.246  -1.045 -24.168  1.00  0.00     0.278 C 
ENDBRANCH   1   7
BRANCH   3   9
ATOM      9  O   UNL     1      -3.330   1.578 -27.435  1.00  0.00    -0.507 OA
ATOM     10  H   UNL     1      -2.542   1.598 -28.004  1.00  0.00     0.293 HD
ENDBRANCH   3   9
BRANCH   4  11
ATOM     11  C   UNL     1      -2.715  -0.183 -29.565  1.00  0.00     0.263 C 
ATOM     12  O   UNL     1      -1.581   0.264 -29.428  1.00  0.00    -0.298 OA
ENDBRANCH   4  11
TORSDOF 3
ENDMDL
MODEL 9
REMARK VINA RESULT:      -5.1     10.139     11.320
REMARK SMILES COc1ccc(C=O)c(O)c1
REMARK SMILES IDX 3 1 11 2 9 3 6 4 5 5 4 6 2 7 1 8 10 9 7 11 8 12
REMARK H PARENT 10 10
ROOT
ATOM      1  C   UNL     1      -5.008  -1.302 -26.505  1.00  0.00     0.122 A 
ATOM      2  C   UNL     1      -4.686  -1.987 -27.680  1.00  0.00     0.093 A 
ATOM      3  C   UNL     1      -3.724  -1.463 -28.551  1.00  0.00     0.129 A 
ATOM      4  C   UNL     1      -3.084  -0.257 -28.255  1.00  0.00     0.056 A 
ATOM      5  C   UNL     1      -3.405   0.430 -27.083  1.00  0.00     0.019 A 
ATOM      6  C   UNL     1      -4.365  -0.095 -26.214  1.00  0.00     0.047 A 
ENDROOT
BRANCH   1   7
ATOM      7  O   UNL     1      -5.922  -1.697 -25.569  1.00  0.00    -0.497 OA
ATOM      8  C   UNL     1      -6.037  -0.905 -24.394  1.00  0.00     0.278 C 
ENDBRANCH   1   7
BRANCH   3   9
ATOM      9  O   UNL     1      -3.409  -2.134 -29.701  1.00  0.00    -0.507 OA
ATOM     10  H   UNL     1      -4.197  -2.195 -30.268  1.00  0.00     0.293 HD
ENDBRANCH   3   9
BRANCH   4  11
ATOM     11  C   UNL     1      -2.067   0.301 -29.171  1.00  0.00     0.263 C 
ATOM     12  O   UNL     1      -2.133   0.144 -30.385  1.00  0.00    -0.298 OA
ENDBRANCH   4  11
TORSDOF 3
ENDMDL
MODEL 10
REMARK VINA RESULT:      -5.0     11.964     14.838
REMARK SMILES COc1ccc(C=O)c(O)c1
REMARK SMILES IDX 3 1 11 2 9 3 6 4 5 5 4 6 2 7 1 8 10 9 7 11 8 12
REMARK H PARENT 10 10
ROOT
ATOM      1  C   UNL     1      -6.884  -0.864 -31.165  1.00  0.00     0.122 A 
ATOM      2  C   UNL     1      -6.918   0.359 -31.841  1.00  0.00     0.093 A 
ATOM      3  C   UNL     1      -8.074   0.741 -32.532  1.00  0.00     0.129 A 
ATOM      4  C   UNL     1      -9.194  -0.094 -32.553  1.00  0.00     0.056 A 
ATOM      5  C   UNL     1      -9.161  -1.317 -31.879  1.00  0.00     0.019 A 
ATOM      6  C   UNL     1      -8.006  -1.696 -31.190  1.00  0.00     0.047 A 
ENDROOT
BRANCH   1   7
ATOM      7  O   UNL     1      -5.827  -1.359 -30.453  1.00  0.00    -0.497 OA
ATOM      8  C   UNL     1      -4.645  -0.571 -30.408  1.00  0.00     0.278 C 
ENDBRANCH   1   7
BRANCH   3   9
ATOM      9  O   UNL     1      -8.108   1.938 -33.192  1.00  0.00    -0.507 OA
ATOM     10  H   UNL     1      -8.966   2.038 -33.640  1.00  0.00     0.293 HD
ENDBRANCH   3   9
BRANCH   4  11
ATOM     11  C   UNL     1     -10.418   0.303 -33.280  1.00  0.00     0.263 C 
ATOM     12  O   UNL     1     -11.032   1.328 -33.001  1.00  0.00    -0.298 OA
ENDBRANCH   4  11
TORSDOF 3
ENDMDL
