MODEL 1
REMARK VINA RESULT:      -5.8      0.000      0.000
REMARK SMILES Cc1cc(C(C)C)ccc1O
REMARK SMILES IDX 4 1 3 2 2 3 10 4 9 5 8 6 1 7 5 8 6 9 7 10 11 11
REMARK H PARENT 11 12
ROOT
ATOM      1  C   UNL     1       7.439  -0.401 -17.718  1.00  0.00    -0.045 A 
ATOM      2  C   UNL     1       7.423  -0.963 -19.007  1.00  0.00     0.011 A 
ATOM      3  C   UNL     1       6.817  -2.205 -19.261  1.00  0.00    -0.009 A 
ATOM      4  C   UNL     1       6.221  -2.883 -18.194  1.00  0.00     0.118 A 
ATOM      5  C   UNL     1       6.226  -2.342 -16.911  1.00  0.00     0.047 A 
ATOM      6  C   UNL     1       6.831  -1.109 -16.673  1.00  0.00     0.008 A 
ATOM      7  C   UNL     1       6.831  -2.758 -20.657  1.00  0.00     0.048 C 
ENDROOT
BRANCH   1   8
ATOM      8  C   UNL     1       8.094   0.941 -17.439  1.00  0.00     0.013 C 
ATOM      9  C   UNL     1       9.323   0.791 -16.539  1.00  0.00     0.012 C 
ATOM     10  C   UNL     1       7.099   1.939 -16.842  1.00  0.00     0.012 C 
ENDBRANCH   1   8
BRANCH   4  11
ATOM     11  O   UNL     1       5.607  -4.095 -18.332  1.00  0.00    -0.508 OA
ATOM     12  H   UNL     1       6.196  -4.698 -18.810  1.00  0.00     0.293 HD
ENDBRANCH   4  11
TORSDOF 2
ENDMDL
MODEL 2
REMARK VINA RESULT:      -5.7     13.966     14.906
REMARK SMILES Cc1cc(C(C)C)ccc1O
REMARK SMILES IDX 4 1 3 2 2 3 10 4 9 5 8 6 1 7 5 8 6 9 7 10 11 11
REMARK H PARENT 11 12
ROOT
ATOM      1  C   UNL     1      -4.284  -0.537 -26.728  1.00  0.00    -0.045 A 
ATOM      2  C   UNL     1      -4.253  -1.374 -27.857  1.00  0.00     0.011 A 
ATOM      3  C   UNL     1      -3.392  -1.121 -28.938  1.00  0.00    -0.009 A 
ATOM      4  C   UNL     1      -2.554  -0.005 -28.870  1.00  0.00     0.118 A 
ATOM      5  C   UNL     1      -2.569   0.835 -27.760  1.00  0.00     0.047 A 
ATOM      6  C   UNL     1      -3.429   0.572 -26.695  1.00  0.00     0.008 A 
ATOM      7  C   UNL     1      -3.402  -2.048 -30.119  1.00  0.00     0.048 C 
ENDROOT
BRANCH   1   8
ATOM      8  C   UNL     1      -5.215  -0.807 -25.558  1.00  0.00     0.013 C 
ATOM      9  C   UNL     1      -6.685  -0.708 -25.974  1.00  0.00     0.012 C 
ATOM     10  C   UNL     1      -4.918   0.121 -24.378  1.00  0.00     0.012 C 
ENDBRANCH   1   8
BRANCH   4  11
ATOM     11  O   UNL     1      -1.681   0.332 -29.866  1.00  0.00    -0.508 OA
ATOM     12  H   UNL     1      -2.112   0.206 -30.724  1.00  0.00     0.293 HD
ENDBRANCH   4  11
TORSDOF 2
ENDMDL
MODEL 3
REMARK VINA RESULT:      -5.7     19.522     21.166
REMARK SMILES Cc1cc(C(C)C)ccc1O
REMARK SMILES IDX 4 1 3 2 2 3 10 4 9 5 8 6 1 7 5 8 6 9 7 10 11 11
REMARK H PARENT 11 12
ROOT
ATOM      1  C   UNL     1      -7.487   0.996 -32.158  1.00  0.00    -0.045 A 
ATOM      2  C   UNL     1      -8.395   0.612 -31.155  1.00  0.00     0.011 A 
ATOM      3  C   UNL     1      -9.713   0.233 -31.461  1.00  0.00    -0.009 A 
ATOM      4  C   UNL     1     -10.112   0.246 -32.801  1.00  0.00     0.118 A 
ATOM      5  C   UNL     1      -9.227   0.623 -33.808  1.00  0.00     0.047 A 
ATOM      6  C   UNL     1      -7.922   0.996 -33.489  1.00  0.00     0.008 A 
ATOM      7  C   UNL     1     -10.640  -0.166 -30.351  1.00  0.00     0.048 C 
ENDROOT
BRANCH   1   8
ATOM      8  C   UNL     1      -6.061   1.406 -31.830  1.00  0.00     0.013 C 
ATOM      9  C   UNL     1      -5.248   0.229 -31.286  1.00  0.00     0.012 C 
ATOM     10  C   UNL     1      -6.026   2.588 -30.858  1.00  0.00     0.012 C 
ENDBRANCH   1   8
BRANCH   4  11
ATOM     11  O   UNL     1     -11.369  -0.101 -33.207  1.00  0.00    -0.508 OA
ATOM     12  H   UNL     1     -11.305  -0.744 -33.929  1.00  0.00     0.293 HD
ENDBRANCH   4  11
TORSDOF 2
ENDMDL
MODEL 4
REMARK VINA RESULT:      -5.6     13.557     14.712
REMARK SMILES Cc1cc(C(C)C)ccc1O
REMARK SMILES IDX 4 1 3 2 2 3 10 4 9 5 8 6 1 7 5 8 6 9 7 10 11 11
REMARK H PARENT 11 12
ROOT
ATOM      1  C   UNL     1      -4.913  -0.564 -26.091  1.00  0.00    -0.045 A 
ATOM      2  C   UNL     1      -3.880   0.190 -26.673  1.00  0.00     0.011 A 
ATOM      3  C   UNL     1      -3.248  -0.220 -27.861  1.00  0.00    -0.009 A 
ATOM      4  C   UNL     1      -3.674  -1.408 -28.461  1.00  0.00     0.118 A 
ATOM      5  C   UNL     1      -4.697  -2.168 -27.900  1.00  0.00     0.047 A 
ATOM      6  C   UNL     1      -5.314  -1.749 -26.722  1.00  0.00     0.008 A 
ATOM      7  C   UNL     1      -2.149   0.623 -28.437  1.00  0.00     0.048 C 
ENDROOT
BRANCH   1   8
ATOM      8  C   UNL     1      -5.597  -0.125 -24.808  1.00  0.00     0.013 C 
ATOM      9  C   UNL     1      -4.596   0.461 -23.809  1.00  0.00     0.012 C 
ATOM     10  C   UNL     1      -6.393  -1.268 -24.175  1.00  0.00     0.012 C 
ENDBRANCH   1   8
BRANCH   4  11
ATOM     11  O   UNL     1      -3.127  -1.896 -29.614  1.00  0.00    -0.508 OA
ATOM     12  H   UNL     1      -3.832  -2.058 -30.258  1.00  0.00     0.293 HD
ENDBRANCH   4  11
TORSDOF 2
ENDMDL
MODEL 5
REMARK VINA RESULT:      -5.4     14.151     15.608
REMARK SMILES Cc1cc(C(C)C)ccc1O
REMARK SMILES IDX 4 1 3 2 2 3 10 4 9 5 8 6 1 7 5 8 6 9 7 10 11 11
REMARK H PARENT 11 12
ROOT
ATOM      1  C   UNL     1      -3.614  -0.824 -28.478  1.00  0.00    -0.045 A 
ATOM      2  C   UNL     1      -4.122  -0.739 -27.170  1.00  0.00     0.011 A 
ATOM      3  C   UNL     1      -5.364  -1.299 -26.825  1.00  0.00    -0.009 A 
ATOM      4  C   UNL     1      -6.096  -1.952 -27.821  1.00  0.00     0.118 A 
ATOM      5  C   UNL     1      -5.609  -2.046 -29.122  1.00  0.00     0.047 A 
ATOM      6  C   UNL     1      -4.375  -1.486 -29.450  1.00  0.00     0.008 A 
ATOM      7  C   UNL     1      -5.858  -1.178 -25.413  1.00  0.00     0.048 C 
ENDROOT
BRANCH   1   8
ATOM      8  C   UNL     1      -2.272  -0.218 -28.855  1.00  0.00     0.013 C 
ATOM      9  C   UNL     1      -1.955   1.018 -28.009  1.00  0.00     0.012 C 
ATOM     10  C   UNL     1      -2.203   0.110 -30.348  1.00  0.00     0.012 C 
ENDBRANCH   1   8
BRANCH   4  11
ATOM     11  O   UNL     1      -7.314  -2.528 -27.593  1.00  0.00    -0.508 OA
ATOM     12  H   UNL     1      -7.326  -2.905 -26.700  1.00  0.00     0.293 HD
ENDBRANCH   4  11
TORSDOF 2
ENDMDL
MODEL 6
REMARK VINA RESULT:      -5.3      1.859      4.038
REMARK SMILES Cc1cc(C(C)C)ccc1O
REMARK SMILES IDX 4 1 3 2 2 3 10 4 9 5 8 6 1 7 5 8 6 9 7 10 11 11
REMARK H PARENT 11 12
ROOT
ATOM      1  C   UNL     1       6.530  -2.019 -18.982  1.00  0.00    -0.045 A 
ATOM      2  C   UNL     1       7.452  -0.958 -18.984  1.00  0.00     0.011 A 
ATOM      3  C   UNL     1       7.821  -0.301 -17.798  1.00  0.00    -0.009 A 
ATOM      4  C   UNL     1       7.245  -0.728 -16.597  1.00  0.00     0.118 A 
ATOM      5  C   UNL     1       6.331  -1.778 -16.576  1.00  0.00     0.047 A 
ATOM      6  C   UNL     1       5.975  -2.420 -17.761  1.00  0.00     0.008 A 
ATOM      7  C   UNL     1       8.809   0.827 -17.858  1.00  0.00     0.048 C 
ENDROOT
BRANCH   1   8
ATOM      8  C   UNL     1       6.129  -2.731 -20.263  1.00  0.00     0.013 C 
ATOM      9  C   UNL     1       7.274  -3.585 -20.814  1.00  0.00     0.012 C 
ATOM     10  C   UNL     1       5.626  -1.745 -21.320  1.00  0.00     0.012 C 
ENDBRANCH   1   8
BRANCH   4  11
ATOM     11  O   UNL     1       7.533  -0.157 -15.390  1.00  0.00    -0.508 OA
ATOM     12  H   UNL     1       6.882   0.536 -15.202  1.00  0.00     0.293 HD
ENDBRANCH   4  11
TORSDOF 2
ENDMDL
MODEL 7
REMARK VINA RESULT:      -5.3     19.268     21.043
REMARK SMILES Cc1cc(C(C)C)ccc1O
REMARK SMILES IDX 4 1 3 2 2 3 10 4 9 5 8 6 1 7 5 8 6 9 7 10 11 11
REMARK H PARENT 11 12
ROOT
ATOM      1  C   UNL     1      -8.609  -1.427 -30.554  1.00  0.00    -0.045 A 
ATOM      2  C   UNL     1      -8.133  -0.912 -31.773  1.00  0.00     0.011 A 
ATOM      3  C   UNL     1      -8.872   0.025 -32.515  1.00  0.00    -0.009 A 
ATOM      4  C   UNL     1     -10.107   0.444 -32.012  1.00  0.00     0.118 A 
ATOM      5  C   UNL     1     -10.595  -0.054 -30.806  1.00  0.00     0.047 A 
ATOM      6  C   UNL     1      -9.851  -0.984 -30.081  1.00  0.00     0.008 A 
ATOM      7  C   UNL     1      -8.316   0.540 -33.811  1.00  0.00     0.048 C 
ENDROOT
BRANCH   1   8
ATOM      8  C   UNL     1      -7.814  -2.441 -29.750  1.00  0.00     0.013 C 
ATOM      9  C   UNL     1      -6.317  -2.120 -29.762  1.00  0.00     0.012 C 
ATOM     10  C   UNL     1      -8.069  -3.869 -30.237  1.00  0.00     0.012 C 
ENDBRANCH   1   8
BRANCH   4  11
ATOM     11  O   UNL     1     -10.904   1.348 -32.654  1.00  0.00    -0.508 OA
ATOM     12  H   UNL     1     -10.681   2.241 -32.351  1.00  0.00     0.293 HD
ENDBRANCH   4  11
TORSDOF 2
ENDMDL
MODEL 8
REMARK VINA RESULT:      -5.3     14.100     15.742
REMARK SMILES Cc1cc(C(C)C)ccc1O
REMARK SMILES IDX 4 1 3 2 2 3 10 4 9 5 8 6 1 7 5 8 6 9 7 10 11 11
REMARK H PARENT 11 12
ROOT
ATOM      1  C   UNL     1      -3.747  -0.726 -28.319  1.00  0.00    -0.045 A 
ATOM      2  C   UNL     1      -4.608  -1.430 -29.178  1.00  0.00     0.011 A 
ATOM      3  C   UNL     1      -5.870  -1.878 -28.750  1.00  0.00    -0.009 A 
ATOM      4  C   UNL     1      -6.259  -1.606 -27.435  1.00  0.00     0.118 A 
ATOM      5  C   UNL     1      -5.420  -0.908 -26.570  1.00  0.00     0.047 A 
ATOM      6  C   UNL     1      -4.170  -0.470 -27.009  1.00  0.00     0.008 A 
ATOM      7  C   UNL     1      -6.749  -2.627 -29.709  1.00  0.00     0.048 C 
ENDROOT
BRANCH   1   8
ATOM      8  C   UNL     1      -2.382  -0.241 -28.778  1.00  0.00     0.013 C 
ATOM      9  C   UNL     1      -1.928   0.991 -27.991  1.00  0.00     0.012 C 
ATOM     10  C   UNL     1      -2.361   0.035 -30.284  1.00  0.00     0.012 C 
ENDBRANCH   1   8
BRANCH   4  11
ATOM     11  O   UNL     1      -7.462  -1.997 -26.918  1.00  0.00    -0.508 OA
ATOM     12  H   UNL     1      -7.806  -2.738 -27.438  1.00  0.00     0.293 HD
ENDBRANCH   4  11
TORSDOF 2
ENDMDL
MODEL 9
REMARK VINA RESULT:      -5.3     18.403     20.313
REMARK SMILES Cc1cc(C(C)C)ccc1O
REMARK SMILES IDX 4 1 3 2 2 3 10 4 9 5 8 6 1 7 5 8 6 9 7 10 11 11
REMARK H PARENT 11 12
ROOT
ATOM      1  C   UNL     1      -7.765   0.514 -32.457  1.00  0.00    -0.045 A 
ATOM      2  C   UNL     1      -7.798  -0.615 -31.621  1.00  0.00     0.011 A 
ATOM      3  C   UNL     1      -6.695  -0.975 -30.827  1.00  0.00    -0.009 A 
ATOM      4  C   UNL     1      -5.547  -0.178 -30.887  1.00  0.00     0.118 A 
ATOM      5  C   UNL     1      -5.497   0.944 -31.709  1.00  0.00     0.047 A 
ATOM      6  C   UNL     1      -6.599   1.289 -32.490  1.00  0.00     0.008 A 
ATOM      7  C   UNL     1      -6.783  -2.192 -29.954  1.00  0.00     0.048 C 
ENDROOT
BRANCH   1   8
ATOM      8  C   UNL     1      -8.956   0.906 -33.317  1.00  0.00     0.013 C 
ATOM      9  C   UNL     1      -9.821   1.966 -32.630  1.00  0.00     0.012 C 
ATOM     10  C   UNL     1      -9.795  -0.314 -33.705  1.00  0.00     0.012 C 
ENDBRANCH   1   8
BRANCH   4  11
ATOM     11  O   UNL     1      -4.421  -0.440 -30.159  1.00  0.00    -0.508 OA
ATOM     12  H   UNL     1      -4.343   0.211 -29.447  1.00  0.00     0.293 HD
ENDBRANCH   4  11
TORSDOF 2
ENDMDL
MODEL 10
REMARK VINA RESULT:      -5.3     16.246     18.047
REMARK SMILES Cc1cc(C(C)C)ccc1O
REMARK SMILES IDX 4 1 3 2 2 3 10 4 9 5 8 6 1 7 5 8 6 9 7 10 11 11
REMARK H PARENT 11 12
ROOT
ATOM      1  C   UNL     1      -5.247  -1.501 -29.699  1.00  0.00    -0.045 A 
ATOM      2  C   UNL     1      -5.229  -0.369 -30.532  1.00  0.00     0.011 A 
ATOM      3  C   UNL     1      -6.315  -0.052 -31.367  1.00  0.00    -0.009 A 
ATOM      4  C   UNL     1      -7.429  -0.896 -31.353  1.00  0.00     0.118 A 
ATOM      5  C   UNL     1      -7.465  -2.021 -30.534  1.00  0.00     0.047 A 
ATOM      6  C   UNL     1      -6.381  -2.323 -29.712  1.00  0.00     0.008 A 
ATOM      7  C   UNL     1      -6.242   1.169 -32.237  1.00  0.00     0.048 C 
ENDROOT
BRANCH   1   8
ATOM      8  C   UNL     1      -4.074  -1.847 -28.796  1.00  0.00     0.013 C 
ATOM      9  C   UNL     1      -4.516  -2.013 -27.340  1.00  0.00     0.012 C 
ATOM     10  C   UNL     1      -2.952  -0.812 -28.911  1.00  0.00     0.012 C 
ENDBRANCH   1   8
BRANCH   4  11
ATOM     11  O   UNL     1      -8.535  -0.681 -32.126  1.00  0.00    -0.508 OA
ATOM     12  H   UNL     1      -8.256  -0.402 -33.011  1.00  0.00     0.293 HD
ENDBRANCH   4  11
TORSDOF 2
ENDMDL
