MODEL 1
REMARK VINA RESULT:      -6.3      0.000      0.000
REMARK SMILES CC1=CC[C@@H]([C@@H](C)O)CC1
REMARK SMILES IDX 6 1 7 2 5 3 2 4 3 5 10 6 4 7 9 8 1 9 8 10
REMARK H PARENT 8 11
ROOT
ATOM      1  C   UNL     1       6.164  -2.641 -20.052  1.00  0.00     0.114 C 
ATOM      2  C   UNL     1       5.744  -2.173 -21.442  1.00  0.00     0.038 C 
ENDROOT
BRANCH   1   3
ATOM      3  C   UNL     1       6.527  -1.491 -19.089  1.00  0.00     0.021 C 
ATOM      4  C   UNL     1       7.905   0.046 -17.051  1.00  0.00    -0.077 C 
ATOM      5  C   UNL     1       8.515  -0.142 -18.233  1.00  0.00    -0.028 C 
ATOM      6  C   UNL     1       6.637  -0.683 -16.685  1.00  0.00     0.031 C 
ATOM      7  C   UNL     1       7.991  -1.051 -19.308  1.00  0.00     0.033 C 
ATOM      8  C   UNL     1       6.309  -1.857 -17.613  1.00  0.00     0.011 C 
ATOM      9  C   UNL     1       8.443   0.991 -16.016  1.00  0.00     0.039 C 
ENDBRANCH   1   3
BRANCH   1  10
ATOM     10  O   UNL     1       7.292  -3.505 -20.208  1.00  0.00    -0.393 OA
ATOM     11  H   UNL     1       6.958  -4.398 -20.402  1.00  0.00     0.210 HD
ENDBRANCH   1  10
TORSDOF 2
ENDMDL
MODEL 2
REMARK VINA RESULT:      -6.0      2.391      4.506
REMARK SMILES CC1=CC[C@@H]([C@@H](C)O)CC1
REMARK SMILES IDX 6 1 7 2 5 3 2 4 3 5 10 6 4 7 9 8 1 9 8 10
REMARK H PARENT 8 11
ROOT
ATOM      1  C   UNL     1       8.922  -0.176 -15.382  1.00  0.00     0.114 C 
ATOM      2  C   UNL     1      10.447  -0.160 -15.373  1.00  0.00     0.038 C 
ENDROOT
BRANCH   1   3
ATOM      3  C   UNL     1       8.312  -0.903 -16.599  1.00  0.00     0.021 C 
ATOM      4  C   UNL     1       6.849  -1.379 -19.059  1.00  0.00    -0.077 C 
ATOM      5  C   UNL     1       7.994  -0.677 -19.120  1.00  0.00    -0.028 C 
ATOM      6  C   UNL     1       6.207  -1.739 -17.744  1.00  0.00     0.031 C 
ATOM      7  C   UNL     1       8.758  -0.219 -17.910  1.00  0.00     0.033 C 
ATOM      8  C   UNL     1       6.779  -0.976 -16.545  1.00  0.00     0.011 C 
ATOM      9  C   UNL     1       6.134  -1.849 -20.292  1.00  0.00     0.039 C 
ENDBRANCH   1   3
BRANCH   1  10
ATOM     10  O   UNL     1       8.474   1.182 -15.366  1.00  0.00    -0.393 OA
ATOM     11  H   UNL     1       8.099   1.361 -14.486  1.00  0.00     0.210 HD
ENDBRANCH   1  10
TORSDOF 2
ENDMDL
MODEL 3
REMARK VINA RESULT:      -5.8      2.559      4.851
REMARK SMILES CC1=CC[C@@H]([C@@H](C)O)CC1
REMARK SMILES IDX 6 1 7 2 5 3 2 4 3 5 10 6 4 7 9 8 1 9 8 10
REMARK H PARENT 8 11
ROOT
ATOM      1  C   UNL     1       8.983   0.041 -15.341  1.00  0.00     0.114 C 
ATOM      2  C   UNL     1      10.497  -0.117 -15.437  1.00  0.00     0.038 C 
ENDROOT
BRANCH   1   3
ATOM      3  C   UNL     1       8.253  -0.096 -16.693  1.00  0.00     0.021 C 
ATOM      4  C   UNL     1       6.887  -1.274 -18.965  1.00  0.00    -0.077 C 
ATOM      5  C   UNL     1       6.246  -1.230 -17.785  1.00  0.00    -0.028 C 
ATOM      6  C   UNL     1       8.348  -0.926 -19.090  1.00  0.00     0.031 C 
ATOM      7  C   UNL     1       6.894  -0.802 -16.498  1.00  0.00     0.033 C 
ATOM      8  C   UNL     1       9.082  -0.843 -17.747  1.00  0.00     0.011 C 
ATOM      9  C   UNL     1       6.194  -1.674 -20.235  1.00  0.00     0.039 C 
ENDBRANCH   1   3
BRANCH   1  10
ATOM     10  O   UNL     1       8.717   1.331 -14.784  1.00  0.00    -0.393 OA
ATOM     11  H   UNL     1       9.535   1.651 -14.367  1.00  0.00     0.210 HD
ENDBRANCH   1  10
TORSDOF 2
ENDMDL
MODEL 4
REMARK VINA RESULT:      -5.6     13.683     15.128
REMARK SMILES CC1=CC[C@@H]([C@@H](C)O)CC1
REMARK SMILES IDX 6 1 7 2 5 3 2 4 3 5 10 6 4 7 9 8 1 9 8 10
REMARK H PARENT 8 11
ROOT
ATOM      1  C   UNL     1       1.014 -12.397 -25.249  1.00  0.00     0.114 C 
ATOM      2  C   UNL     1       0.632 -13.346 -24.118  1.00  0.00     0.038 C 
ENDROOT
BRANCH   1   3
ATOM      3  C   UNL     1      -0.151 -11.516 -25.748  1.00  0.00     0.021 C 
ATOM      4  C   UNL     1      -1.746  -9.775 -27.433  1.00  0.00    -0.077 C 
ATOM      5  C   UNL     1      -1.578 -11.054 -27.811  1.00  0.00    -0.028 C 
ATOM      6  C   UNL     1      -0.970  -9.175 -26.289  1.00  0.00     0.031 C 
ATOM      7  C   UNL     1      -0.646 -12.012 -27.124  1.00  0.00     0.033 C 
ATOM      8  C   UNL     1       0.219 -10.028 -25.833  1.00  0.00     0.011 C 
ATOM      9  C   UNL     1      -2.714  -8.860 -28.125  1.00  0.00     0.039 C 
ENDBRANCH   1   3
BRANCH   1  10
ATOM     10  O   UNL     1       1.509 -13.189 -26.332  1.00  0.00    -0.393 OA
ATOM     11  H   UNL     1       2.332 -12.780 -26.649  1.00  0.00     0.210 HD
ENDBRANCH   1  10
TORSDOF 2
ENDMDL
MODEL 5
REMARK VINA RESULT:      -5.4     18.323     20.736
REMARK SMILES CC1=CC[C@@H]([C@@H](C)O)CC1
REMARK SMILES IDX 6 1 7 2 5 3 2 4 3 5 10 6 4 7 9 8 1 9 8 10
REMARK H PARENT 8 11
ROOT
ATOM      1  C   UNL     1      -9.900   1.298 -33.598  1.00  0.00     0.114 C 
ATOM      2  C   UNL     1     -10.082  -0.217 -33.595  1.00  0.00     0.038 C 
ENDROOT
BRANCH   1   3
ATOM      3  C   UNL     1      -8.653   1.779 -32.826  1.00  0.00     0.021 C 
ATOM      4  C   UNL     1      -6.212   1.736 -31.260  1.00  0.00    -0.077 C 
ATOM      5  C   UNL     1      -6.166   1.297 -32.529  1.00  0.00    -0.028 C 
ATOM      6  C   UNL     1      -7.516   2.048 -30.573  1.00  0.00     0.031 C 
ATOM      7  C   UNL     1      -7.382   1.110 -33.392  1.00  0.00     0.033 C 
ATOM      8  C   UNL     1      -8.749   1.521 -31.315  1.00  0.00     0.011 C 
ATOM      9  C   UNL     1      -4.970   1.943 -30.442  1.00  0.00     0.039 C 
ENDBRANCH   1   3
BRANCH   1  10
ATOM     10  O   UNL     1     -11.071   1.877 -33.018  1.00  0.00    -0.393 OA
ATOM     11  H   UNL     1     -11.189   1.489 -32.134  1.00  0.00     0.210 HD
ENDBRANCH   1  10
TORSDOF 2
ENDMDL
MODEL 6
REMARK VINA RESULT:      -5.3     13.902     14.715
REMARK SMILES CC1=CC[C@@H]([C@@H](C)O)CC1
REMARK SMILES IDX 6 1 7 2 5 3 2 4 3 5 10 6 4 7 9 8 1 9 8 10
REMARK H PARENT 8 11
ROOT
ATOM      1  C   UNL     1      -5.559  -1.180 -25.535  1.00  0.00     0.114 C 
ATOM      2  C   UNL     1      -5.471  -0.222 -24.351  1.00  0.00     0.038 C 
ENDROOT
BRANCH   1   3
ATOM      3  C   UNL     1      -4.832  -0.679 -26.800  1.00  0.00     0.021 C 
ATOM      4  C   UNL     1      -2.779  -0.303 -28.815  1.00  0.00    -0.077 C 
ATOM      5  C   UNL     1      -3.400  -1.493 -28.747  1.00  0.00    -0.028 C 
ATOM      6  C   UNL     1      -2.969   0.754 -27.758  1.00  0.00     0.031 C 
ATOM      7  C   UNL     1      -4.356  -1.875 -27.653  1.00  0.00     0.033 C 
ATOM      8  C   UNL     1      -3.643   0.239 -26.482  1.00  0.00     0.011 C 
ATOM      9  C   UNL     1      -1.858   0.053 -29.945  1.00  0.00     0.039 C 
ENDBRANCH   1   3
BRANCH   1  10
ATOM     10  O   UNL     1      -6.943  -1.380 -25.829  1.00  0.00    -0.393 OA
ATOM     11  H   UNL     1      -7.427  -1.406 -24.986  1.00  0.00     0.210 HD
ENDBRANCH   1  10
TORSDOF 2
ENDMDL
MODEL 7
REMARK VINA RESULT:      -5.3     13.725     15.194
REMARK SMILES CC1=CC[C@@H]([C@@H](C)O)CC1
REMARK SMILES IDX 6 1 7 2 5 3 2 4 3 5 10 6 4 7 9 8 1 9 8 10
REMARK H PARENT 8 11
ROOT
ATOM      1  C   UNL     1      -3.210  -9.645 -28.129  1.00  0.00     0.114 C 
ATOM      2  C   UNL     1      -4.630  -9.467 -27.601  1.00  0.00     0.038 C 
ENDROOT
BRANCH   1   3
ATOM      3  C   UNL     1      -2.240 -10.280 -27.111  1.00  0.00     0.021 C 
ATOM      4  C   UNL     1       0.213 -10.982 -25.730  1.00  0.00    -0.077 C 
ATOM      5  C   UNL     1      -0.246  -9.724 -25.621  1.00  0.00    -0.028 C 
ATOM      6  C   UNL     1      -0.387 -11.966 -26.702  1.00  0.00     0.031 C 
ATOM      7  C   UNL     1      -1.404  -9.186 -26.413  1.00  0.00     0.033 C 
ATOM      8  C   UNL     1      -1.307 -11.323 -27.745  1.00  0.00     0.011 C 
ATOM      9  C   UNL     1       1.351 -11.491 -24.895  1.00  0.00     0.039 C 
ENDBRANCH   1   3
BRANCH   1  10
ATOM     10  O   UNL     1      -2.724  -8.356 -28.509  1.00  0.00    -0.393 OA
ATOM     11  H   UNL     1      -2.374  -7.922 -27.712  1.00  0.00     0.210 HD
ENDBRANCH   1  10
TORSDOF 2
ENDMDL
MODEL 8
REMARK VINA RESULT:      -5.2     18.374     20.941
REMARK SMILES CC1=CC[C@@H]([C@@H](C)O)CC1
REMARK SMILES IDX 6 1 7 2 5 3 2 4 3 5 10 6 4 7 9 8 1 9 8 10
REMARK H PARENT 8 11
ROOT
ATOM      1  C   UNL     1     -10.434   0.296 -33.215  1.00  0.00     0.114 C 
ATOM      2  C   UNL     1     -11.211  -0.629 -32.284  1.00  0.00     0.038 C 
ENDROOT
BRANCH   1   3
ATOM      3  C   UNL     1      -8.907   0.262 -32.999  1.00  0.00     0.021 C 
ATOM      4  C   UNL     1      -6.319   0.377 -31.692  1.00  0.00    -0.077 C 
ATOM      5  C   UNL     1      -7.122  -0.669 -31.432  1.00  0.00    -0.028 C 
ATOM      6  C   UNL     1      -6.801   1.576 -32.467  1.00  0.00     0.031 C 
ATOM      7  C   UNL     1      -8.544  -0.769 -31.907  1.00  0.00     0.033 C 
ATOM      8  C   UNL     1      -8.323   1.634 -32.634  1.00  0.00     0.011 C 
ATOM      9  C   UNL     1      -4.892   0.422 -31.229  1.00  0.00     0.039 C 
ENDBRANCH   1   3
BRANCH   1  10
ATOM     10  O   UNL     1     -10.914   1.626 -33.005  1.00  0.00    -0.393 OA
ATOM     11  H   UNL     1     -10.302   2.071 -32.394  1.00  0.00     0.210 HD
ENDBRANCH   1  10
TORSDOF 2
ENDMDL
MODEL 9
REMARK VINA RESULT:      -5.1     13.549     15.579
REMARK SMILES CC1=CC[C@@H]([C@@H](C)O)CC1
REMARK SMILES IDX 6 1 7 2 5 3 2 4 3 5 10 6 4 7 9 8 1 9 8 10
REMARK H PARENT 8 11
ROOT
ATOM      1  C   UNL     1       0.220  -9.971 -26.642  1.00  0.00     0.114 C 
ATOM      2  C   UNL     1       0.859 -10.633 -25.425  1.00  0.00     0.038 C 
ENDROOT
BRANCH   1   3
ATOM      3  C   UNL     1      -1.312  -9.816 -26.536  1.00  0.00     0.021 C 
ATOM      4  C   UNL     1      -4.101  -9.555 -27.292  1.00  0.00    -0.077 C 
ATOM      5  C   UNL     1      -3.493 -10.738 -27.483  1.00  0.00    -0.028 C 
ATOM      6  C   UNL     1      -3.331  -8.320 -26.898  1.00  0.00     0.031 C 
ATOM      7  C   UNL     1      -2.020 -10.961 -27.292  1.00  0.00     0.033 C 
ATOM      8  C   UNL     1      -1.813  -8.461 -27.055  1.00  0.00     0.011 C 
ATOM      9  C   UNL     1      -5.582  -9.382 -27.459  1.00  0.00     0.039 C 
ENDBRANCH   1   3
BRANCH   1  10
ATOM     10  O   UNL     1       0.539 -10.766 -27.786  1.00  0.00    -0.393 OA
ATOM     11  H   UNL     1       1.285 -11.343 -27.549  1.00  0.00     0.210 HD
ENDBRANCH   1  10
TORSDOF 2
ENDMDL
MODEL 10
REMARK VINA RESULT:      -5.1     13.918     15.164
REMARK SMILES CC1=CC[C@@H]([C@@H](C)O)CC1
REMARK SMILES IDX 6 1 7 2 5 3 2 4 3 5 10 6 4 7 9 8 1 9 8 10
REMARK H PARENT 8 11
ROOT
ATOM      1  C   UNL     1      -3.043  -0.369 -31.077  1.00  0.00     0.114 C 
ATOM      2  C   UNL     1      -4.099   0.530 -31.715  1.00  0.00     0.038 C 
ENDROOT
BRANCH   1   3
ATOM      3  C   UNL     1      -3.143  -0.457 -29.540  1.00  0.00     0.021 C 
ATOM      4  C   UNL     1      -4.200  -0.264 -26.845  1.00  0.00    -0.077 C 
ATOM      5  C   UNL     1      -4.712  -1.194 -27.669  1.00  0.00    -0.028 C 
ATOM      6  C   UNL     1      -3.254   0.801 -27.338  1.00  0.00     0.031 C 
ATOM      7  C   UNL     1      -4.376  -1.291 -29.130  1.00  0.00     0.033 C 
ATOM      8  C   UNL     1      -3.199   0.921 -28.865  1.00  0.00     0.011 C 
ATOM      9  C   UNL     1      -4.534  -0.223 -25.382  1.00  0.00     0.039 C 
ENDBRANCH   1   3
BRANCH   1  10
ATOM     10  O   UNL     1      -1.760   0.143 -31.442  1.00  0.00    -0.393 OA
ATOM     11  H   UNL     1      -1.170  -0.614 -31.598  1.00  0.00     0.210 HD
ENDBRANCH   1  10
TORSDOF 2
ENDMDL
