MODEL 1
REMARK VINA RESULT:      -6.8      0.000      0.000
REMARK SMILES O=C/C=C/c1ccc(O)cc1
REMARK SMILES IDX 6 1 7 2 8 3 10 4 11 5 5 6 4 7 3 8 2 9 1 10 9 11
REMARK H PARENT 9 12
ROOT
ATOM      1  C   UNL     1       6.236  -1.791 -17.625  1.00  0.00     0.012 A 
ATOM      2  C   UNL     1       6.692  -1.085 -16.507  1.00  0.00     0.047 A 
ATOM      3  C   UNL     1       7.745  -0.188 -16.647  1.00  0.00     0.115 A 
ATOM      4  C   UNL     1       8.342   0.017 -17.885  1.00  0.00     0.047 A 
ATOM      5  C   UNL     1       7.885  -0.689 -18.999  1.00  0.00     0.012 A 
ATOM      6  C   UNL     1       6.836  -1.612 -18.881  1.00  0.00    -0.025 A 
ENDROOT
BRANCH   6   7
ATOM      7  C   UNL     1       6.366  -2.309 -20.087  1.00  0.00     0.011 C 
ATOM      8  C   UNL     1       5.743  -1.698 -21.103  1.00  0.00     0.044 C 
BRANCH   8   9
ATOM      9  C   UNL     1       5.297  -2.479 -22.273  1.00  0.00     0.252 C 
ATOM     10  O   UNL     1       5.024  -1.935 -23.335  1.00  0.00    -0.299 OA
ENDBRANCH   8   9
ENDBRANCH   6   7
BRANCH   3  11
ATOM     11  O   UNL     1       8.221   0.522 -15.586  1.00  0.00    -0.508 OA
ATOM     12  H   UNL     1       7.847   1.418 -15.619  1.00  0.00     0.293 HD
ENDBRANCH   3  11
TORSDOF 3
ENDMDL
MODEL 2
REMARK VINA RESULT:      -6.1      1.486      2.414
REMARK SMILES O=C/C=C/c1ccc(O)cc1
REMARK SMILES IDX 6 1 7 2 8 3 10 4 11 5 5 6 4 7 3 8 2 9 1 10 9 11
REMARK H PARENT 9 12
ROOT
ATOM      1  C   UNL     1       6.616  -1.260 -19.944  1.00  0.00     0.012 A 
ATOM      2  C   UNL     1       7.106  -1.033 -18.653  1.00  0.00     0.047 A 
ATOM      3  C   UNL     1       6.924  -2.001 -17.673  1.00  0.00     0.115 A 
ATOM      4  C   UNL     1       6.269  -3.191 -17.963  1.00  0.00     0.047 A 
ATOM      5  C   UNL     1       5.781  -3.415 -19.253  1.00  0.00     0.012 A 
ATOM      6  C   UNL     1       5.937  -2.447 -20.255  1.00  0.00    -0.025 A 
ENDROOT
BRANCH   6   7
ATOM      7  C   UNL     1       5.436  -2.739 -21.606  1.00  0.00     0.011 C 
ATOM      8  C   UNL     1       5.149  -1.796 -22.513  1.00  0.00     0.044 C 
BRANCH   8   9
ATOM      9  C   UNL     1       4.643  -2.181 -23.844  1.00  0.00     0.252 C 
ATOM     10  O   UNL     1       3.555  -1.790 -24.248  1.00  0.00    -0.299 OA
ENDBRANCH   8   9
ENDBRANCH   6   7
BRANCH   3  11
ATOM     11  O   UNL     1       7.385  -1.824 -16.403  1.00  0.00    -0.508 OA
ATOM     12  H   UNL     1       7.489  -0.872 -16.240  1.00  0.00     0.293 HD
ENDBRANCH   3  11
TORSDOF 3
ENDMDL
MODEL 3
REMARK VINA RESULT:      -5.8     13.478     14.230
REMARK SMILES O=C/C=C/c1ccc(O)cc1
REMARK SMILES IDX 6 1 7 2 8 3 10 4 11 5 5 6 4 7 3 8 2 9 1 10 9 11
REMARK H PARENT 9 12
ROOT
ATOM      1  C   UNL     1      -3.973  -1.641 -28.199  1.00  0.00     0.012 A 
ATOM      2  C   UNL     1      -3.068  -1.271 -29.199  1.00  0.00     0.047 A 
ATOM      3  C   UNL     1      -2.373  -0.073 -29.084  1.00  0.00     0.115 A 
ATOM      4  C   UNL     1      -2.565   0.757 -27.985  1.00  0.00     0.047 A 
ATOM      5  C   UNL     1      -3.470   0.385 -26.988  1.00  0.00     0.012 A 
ATOM      6  C   UNL     1      -4.195  -0.811 -27.089  1.00  0.00    -0.025 A 
ENDROOT
BRANCH   6   7
ATOM      7  C   UNL     1      -5.112  -1.177 -26.000  1.00  0.00     0.011 C 
ATOM      8  C   UNL     1      -5.393  -0.376 -24.964  1.00  0.00     0.044 C 
BRANCH   8   9
ATOM      9  C   UNL     1      -6.321  -0.830 -23.910  1.00  0.00     0.252 C 
ATOM     10  O   UNL     1      -6.830  -1.941 -23.947  1.00  0.00    -0.299 OA
ENDBRANCH   8   9
ENDBRANCH   6   7
BRANCH   3  11
ATOM     11  O   UNL     1      -1.481   0.327 -30.033  1.00  0.00    -0.508 OA
ATOM     12  H   UNL     1      -0.885  -0.414 -30.231  1.00  0.00     0.293 HD
ENDBRANCH   3  11
TORSDOF 3
ENDMDL
MODEL 4
REMARK VINA RESULT:      -5.5     16.391     19.886
REMARK SMILES O=C/C=C/c1ccc(O)cc1
REMARK SMILES IDX 6 1 7 2 8 3 10 4 11 5 5 6 4 7 3 8 2 9 1 10 9 11
REMARK H PARENT 9 12
ROOT
ATOM      1  C   UNL     1      -7.982   1.710 -31.245  1.00  0.00     0.012 A 
ATOM      2  C   UNL     1      -9.344   1.877 -31.517  1.00  0.00     0.047 A 
ATOM      3  C   UNL     1      -9.839   1.527 -32.768  1.00  0.00     0.115 A 
ATOM      4  C   UNL     1      -8.998   1.010 -33.746  1.00  0.00     0.047 A 
ATOM      5  C   UNL     1      -7.638   0.845 -33.471  1.00  0.00     0.012 A 
ATOM      6  C   UNL     1      -7.111   1.206 -32.223  1.00  0.00    -0.025 A 
ENDROOT
BRANCH   6   7
ATOM      7  C   UNL     1      -5.680   0.985 -31.968  1.00  0.00     0.011 C 
ATOM      8  C   UNL     1      -5.210   0.033 -31.150  1.00  0.00     0.044 C 
BRANCH   8   9
ATOM      9  C   UNL     1      -3.755  -0.111 -30.946  1.00  0.00     0.252 C 
ATOM     10  O   UNL     1      -3.124  -1.012 -31.482  1.00  0.00    -0.299 OA
ENDBRANCH   8   9
ENDBRANCH   6   7
BRANCH   3  11
ATOM     11  O   UNL     1     -11.159   1.671 -33.077  1.00  0.00    -0.508 OA
ATOM     12  H   UNL     1     -11.286   1.437 -34.012  1.00  0.00     0.293 HD
ENDBRANCH   3  11
TORSDOF 3
ENDMDL
MODEL 5
REMARK VINA RESULT:      -5.5     16.415     19.939
REMARK SMILES O=C/C=C/c1ccc(O)cc1
REMARK SMILES IDX 6 1 7 2 8 3 10 4 11 5 5 6 4 7 3 8 2 9 1 10 9 11
REMARK H PARENT 9 12
ROOT
ATOM      1  C   UNL     1      -7.740   0.625 -33.462  1.00  0.00     0.012 A 
ATOM      2  C   UNL     1      -9.070   0.917 -33.778  1.00  0.00     0.047 A 
ATOM      3  C   UNL     1      -9.876   1.542 -32.833  1.00  0.00     0.115 A 
ATOM      4  C   UNL     1      -9.372   1.882 -31.584  1.00  0.00     0.047 A 
ATOM      5  C   UNL     1      -8.044   1.589 -31.271  1.00  0.00     0.012 A 
ATOM      6  C   UNL     1      -7.215   0.945 -32.201  1.00  0.00    -0.025 A 
ENDROOT
BRANCH   6   7
ATOM      7  C   UNL     1      -5.814   0.685 -31.840  1.00  0.00     0.011 C 
ATOM      8  C   UNL     1      -5.438  -0.205 -30.911  1.00  0.00     0.044 C 
BRANCH   8   9
ATOM      9  C   UNL     1      -4.007  -0.395 -30.606  1.00  0.00     0.252 C 
ATOM     10  O   UNL     1      -3.224  -0.798 -31.456  1.00  0.00    -0.299 OA
ENDBRANCH   8   9
ENDBRANCH   6   7
BRANCH   3  11
ATOM     11  O   UNL     1     -11.178   1.847 -33.098  1.00  0.00    -0.508 OA
ATOM     12  H   UNL     1     -11.424   1.447 -33.948  1.00  0.00     0.293 HD
ENDBRANCH   3  11
TORSDOF 3
ENDMDL
MODEL 6
REMARK VINA RESULT:      -5.4     13.130     15.034
REMARK SMILES O=C/C=C/c1ccc(O)cc1
REMARK SMILES IDX 6 1 7 2 8 3 10 4 11 5 5 6 4 7 3 8 2 9 1 10 9 11
REMARK H PARENT 9 12
ROOT
ATOM      1  C   UNL     1      -3.763  -1.424 -29.061  1.00  0.00     0.012 A 
ATOM      2  C   UNL     1      -2.637  -0.605 -28.928  1.00  0.00     0.047 A 
ATOM      3  C   UNL     1      -2.568   0.296 -27.872  1.00  0.00     0.115 A 
ATOM      4  C   UNL     1      -3.601   0.387 -26.948  1.00  0.00     0.047 A 
ATOM      5  C   UNL     1      -4.724  -0.431 -27.083  1.00  0.00     0.012 A 
ATOM      6  C   UNL     1      -4.825  -1.337 -28.149  1.00  0.00    -0.025 A 
ENDROOT
BRANCH   6   7
ATOM      7  C   UNL     1      -6.011  -2.202 -28.233  1.00  0.00     0.011 C 
ATOM      8  C   UNL     1      -6.636  -2.496 -29.381  1.00  0.00     0.044 C 
BRANCH   8   9
ATOM      9  C   UNL     1      -7.827  -3.368 -29.371  1.00  0.00     0.252 C 
ATOM     10  O   UNL     1      -8.153  -3.987 -28.367  1.00  0.00    -0.299 OA
ENDBRANCH   8   9
ENDBRANCH   6   7
BRANCH   3  11
ATOM     11  O   UNL     1      -1.490   1.113 -27.702  1.00  0.00    -0.508 OA
ATOM     12  H   UNL     1      -1.520   1.483 -26.804  1.00  0.00     0.293 HD
ENDBRANCH   3  11
TORSDOF 3
ENDMDL
MODEL 7
REMARK VINA RESULT:      -5.4      5.595      7.385
REMARK SMILES O=C/C=C/c1ccc(O)cc1
REMARK SMILES IDX 6 1 7 2 8 3 10 4 11 5 5 6 4 7 3 8 2 9 1 10 9 11
REMARK H PARENT 9 12
ROOT
ATOM      1  C   UNL     1       3.285  -0.995 -25.234  1.00  0.00     0.012 A 
ATOM      2  C   UNL     1       2.975  -1.758 -24.103  1.00  0.00     0.047 A 
ATOM      3  C   UNL     1       4.000  -2.207 -23.279  1.00  0.00     0.115 A 
ATOM      4  C   UNL     1       5.325  -1.902 -23.564  1.00  0.00     0.047 A 
ATOM      5  C   UNL     1       5.632  -1.140 -24.694  1.00  0.00     0.012 A 
ATOM      6  C   UNL     1       4.617  -0.689 -25.550  1.00  0.00    -0.025 A 
ENDROOT
BRANCH   6   7
ATOM      7  C   UNL     1       4.983   0.137 -26.710  1.00  0.00     0.011 C 
ATOM      8  C   UNL     1       6.224   0.206 -27.210  1.00  0.00     0.044 C 
BRANCH   8   9
ATOM      9  C   UNL     1       6.503   1.069 -28.374  1.00  0.00     0.252 C 
ATOM     10  O   UNL     1       5.847   0.982 -29.403  1.00  0.00    -0.299 OA
ENDBRANCH   8   9
ENDBRANCH   6   7
BRANCH   3  11
ATOM     11  O   UNL     1       3.746  -2.952 -22.166  1.00  0.00    -0.508 OA
ATOM     12  H   UNL     1       4.502  -3.541 -22.007  1.00  0.00     0.293 HD
ENDBRANCH   3  11
TORSDOF 3
ENDMDL
MODEL 8
REMARK VINA RESULT:      -5.4     12.828     14.687
REMARK SMILES O=C/C=C/c1ccc(O)cc1
REMARK SMILES IDX 6 1 7 2 8 3 10 4 11 5 5 6 4 7 3 8 2 9 1 10 9 11
REMARK H PARENT 9 12
ROOT
ATOM      1  C   UNL     1      -1.020  -8.862 -26.263  1.00  0.00     0.012 A 
ATOM      2  C   UNL     1      -2.082  -8.548 -27.117  1.00  0.00     0.047 A 
ATOM      3  C   UNL     1      -2.518  -9.490 -28.041  1.00  0.00     0.115 A 
ATOM      4  C   UNL     1      -1.913 -10.738 -28.122  1.00  0.00     0.047 A 
ATOM      5  C   UNL     1      -0.852 -11.049 -27.269  1.00  0.00     0.012 A 
ATOM      6  C   UNL     1      -0.384 -10.110 -26.339  1.00  0.00    -0.025 A 
ENDROOT
BRANCH   6   7
ATOM      7  C   UNL     1       0.715 -10.492 -25.439  1.00  0.00     0.011 C 
ATOM      8  C   UNL     1       0.783 -11.673 -24.809  1.00  0.00     0.044 C 
BRANCH   8   9
ATOM      9  C   UNL     1       1.920 -11.968 -23.916  1.00  0.00     0.252 C 
ATOM     10  O   UNL     1       2.440 -11.092 -23.238  1.00  0.00    -0.299 OA
ENDBRANCH   8   9
ENDBRANCH   6   7
BRANCH   3  11
ATOM     11  O   UNL     1      -3.551  -9.229 -28.892  1.00  0.00    -0.508 OA
ATOM     12  H   UNL     1      -4.382  -9.267 -28.392  1.00  0.00     0.293 HD
ENDBRANCH   3  11
TORSDOF 3
ENDMDL
MODEL 9
REMARK VINA RESULT:      -5.3      2.061      5.608
REMARK SMILES O=C/C=C/c1ccc(O)cc1
REMARK SMILES IDX 6 1 7 2 8 3 10 4 11 5 5 6 4 7 3 8 2 9 1 10 9 11
REMARK H PARENT 9 12
ROOT
ATOM      1  C   UNL     1       6.570  -1.175 -16.778  1.00  0.00     0.012 A 
ATOM      2  C   UNL     1       6.061  -2.233 -17.537  1.00  0.00     0.047 A 
ATOM      3  C   UNL     1       6.485  -2.399 -18.850  1.00  0.00     0.115 A 
ATOM      4  C   UNL     1       7.411  -1.529 -19.412  1.00  0.00     0.047 A 
ATOM      5  C   UNL     1       7.918  -0.473 -18.652  1.00  0.00     0.012 A 
ATOM      6  C   UNL     1       7.493  -0.275 -17.331  1.00  0.00    -0.025 A 
ENDROOT
BRANCH   6   7
ATOM      7  C   UNL     1       8.077   0.831 -16.558  1.00  0.00     0.011 C 
ATOM      8  C   UNL     1       9.296   0.787 -16.001  1.00  0.00     0.044 C 
BRANCH   8   9
ATOM      9  C   UNL     1       9.799   1.943 -15.234  1.00  0.00     0.252 C 
ATOM     10  O   UNL     1       9.692   1.992 -14.016  1.00  0.00    -0.299 OA
ENDBRANCH   8   9
ENDBRANCH   6   7
BRANCH   3  11
ATOM     11  O   UNL     1       6.017  -3.417 -19.627  1.00  0.00    -0.508 OA
ATOM     12  H   UNL     1       6.651  -3.575 -20.346  1.00  0.00     0.293 HD
ENDBRANCH   3  11
TORSDOF 3
ENDMDL
MODEL 10
REMARK VINA RESULT:      -5.3     16.797     19.272
REMARK SMILES O=C/C=C/c1ccc(O)cc1
REMARK SMILES IDX 6 1 7 2 8 3 10 4 11 5 5 6 4 7 3 8 2 9 1 10 9 11
REMARK H PARENT 9 12
ROOT
ATOM      1  C   UNL     1      -6.188   1.242 -32.426  1.00  0.00     0.012 A 
ATOM      2  C   UNL     1      -4.955   1.481 -31.812  1.00  0.00     0.047 A 
ATOM      3  C   UNL     1      -4.919   2.098 -30.568  1.00  0.00     0.115 A 
ATOM      4  C   UNL     1      -6.093   2.473 -29.927  1.00  0.00     0.047 A 
ATOM      5  C   UNL     1      -7.324   2.233 -30.542  1.00  0.00     0.012 A 
ATOM      6  C   UNL     1      -7.386   1.627 -31.805  1.00  0.00    -0.025 A 
ENDROOT
BRANCH   6   7
ATOM      7  C   UNL     1      -8.704   1.365 -32.400  1.00  0.00     0.011 C 
ATOM      8  C   UNL     1      -8.985   0.282 -33.138  1.00  0.00     0.044 C 
BRANCH   8   9
ATOM      9  C   UNL     1     -10.336   0.105 -33.704  1.00  0.00     0.252 C 
ATOM     10  O   UNL     1     -11.303  -0.114 -32.987  1.00  0.00    -0.299 OA
ENDBRANCH   8   9
ENDBRANCH   6   7
BRANCH   3  11
ATOM     11  O   UNL     1      -3.740   2.349 -29.931  1.00  0.00    -0.508 OA
ATOM     12  H   UNL     1      -3.927   2.835 -29.111  1.00  0.00     0.293 HD
ENDBRANCH   3  11
TORSDOF 3
ENDMDL
