MODEL 1
REMARK VINA RESULT:      -7.1      0.000      0.000
REMARK SMILES CC=Cc1ccc(O)cc1
REMARK SMILES IDX 5 1 6 2 7 3 9 4 10 5 4 6 3 7 2 8 1 9 8 10
REMARK H PARENT 8 11
ROOT
ATOM      1  C   UNL     1       8.053  -0.668 -19.015  1.00  0.00     0.012 A 
ATOM      2  C   UNL     1       8.492  -0.017 -17.857  1.00  0.00     0.047 A 
ATOM      3  C   UNL     1       7.804  -0.207 -16.664  1.00  0.00     0.115 A 
ATOM      4  C   UNL     1       6.693  -1.038 -16.609  1.00  0.00     0.047 A 
ATOM      5  C   UNL     1       6.257  -1.688 -17.766  1.00  0.00     0.012 A 
ATOM      6  C   UNL     1       6.923  -1.498 -18.985  1.00  0.00    -0.026 A 
ENDROOT
BRANCH   6   7
ATOM      7  C   UNL     1       6.451  -2.227 -20.172  1.00  0.00     0.003 C 
ATOM      8  C   UNL     1       5.682  -1.691 -21.132  1.00  0.00    -0.030 C 
ATOM      9  C   UNL     1       5.201  -2.449 -22.327  1.00  0.00     0.035 C 
ENDBRANCH   6   7
BRANCH   3  10
ATOM     10  O   UNL     1       8.197   0.406 -15.511  1.00  0.00    -0.508 OA
ATOM     11  H   UNL     1       7.983   1.351 -15.576  1.00  0.00     0.293 HD
ENDBRANCH   3  10
TORSDOF 2
ENDMDL
MODEL 2
REMARK VINA RESULT:      -7.1      0.148      1.532
REMARK SMILES CC=Cc1ccc(O)cc1
REMARK SMILES IDX 5 1 6 2 7 3 9 4 10 5 4 6 3 7 2 8 1 9 8 10
REMARK H PARENT 8 11
ROOT
ATOM      1  C   UNL     1       6.187  -1.801 -17.655  1.00  0.00     0.012 A 
ATOM      2  C   UNL     1       6.651  -1.101 -16.536  1.00  0.00     0.047 A 
ATOM      3  C   UNL     1       7.715  -0.217 -16.676  1.00  0.00     0.115 A 
ATOM      4  C   UNL     1       8.316  -0.019 -17.911  1.00  0.00     0.047 A 
ATOM      5  C   UNL     1       7.851  -0.718 -19.028  1.00  0.00     0.012 A 
ATOM      6  C   UNL     1       6.791  -1.628 -18.909  1.00  0.00    -0.026 A 
ENDROOT
BRANCH   6   7
ATOM      7  C   UNL     1       6.312  -2.319 -20.115  1.00  0.00     0.003 C 
ATOM      8  C   UNL     1       5.715  -1.707 -21.149  1.00  0.00    -0.030 C 
ATOM      9  C   UNL     1       5.223  -2.426 -22.364  1.00  0.00     0.035 C 
ENDBRANCH   6   7
BRANCH   3  10
ATOM     10  O   UNL     1       8.198   0.488 -15.613  1.00  0.00    -0.508 OA
ATOM     11  H   UNL     1       7.451   0.749 -15.050  1.00  0.00     0.293 HD
ENDBRANCH   3  10
TORSDOF 2
ENDMDL
MODEL 3
REMARK VINA RESULT:      -6.5      1.665      2.566
REMARK SMILES CC=Cc1ccc(O)cc1
REMARK SMILES IDX 5 1 6 2 7 3 9 4 10 5 4 6 3 7 2 8 1 9 8 10
REMARK H PARENT 8 11
ROOT
ATOM      1  C   UNL     1       5.844  -3.399 -19.569  1.00  0.00     0.012 A 
ATOM      2  C   UNL     1       5.928  -3.384 -18.173  1.00  0.00     0.047 A 
ATOM      3  C   UNL     1       6.285  -2.208 -17.523  1.00  0.00     0.115 A 
ATOM      4  C   UNL     1       6.552  -1.051 -18.242  1.00  0.00     0.047 A 
ATOM      5  C   UNL     1       6.465  -1.068 -19.636  1.00  0.00     0.012 A 
ATOM      6  C   UNL     1       6.125  -2.246 -20.316  1.00  0.00    -0.026 A 
ENDROOT
BRANCH   6   7
ATOM      7  C   UNL     1       6.013  -2.212 -21.782  1.00  0.00     0.003 C 
ATOM      8  C   UNL     1       4.855  -2.096 -22.449  1.00  0.00    -0.030 C 
ATOM      9  C   UNL     1       4.757  -2.073 -23.941  1.00  0.00     0.035 C 
ENDBRANCH   6   7
BRANCH   3  10
ATOM     10  O   UNL     1       6.379  -2.148 -16.164  1.00  0.00    -0.508 OA
ATOM     11  H   UNL     1       7.273  -2.423 -15.903  1.00  0.00     0.293 HD
ENDBRANCH   3  10
TORSDOF 2
ENDMDL
MODEL 4
REMARK VINA RESULT:      -5.9      3.405      4.755
REMARK SMILES CC=Cc1ccc(O)cc1
REMARK SMILES IDX 5 1 6 2 7 3 9 4 10 5 4 6 3 7 2 8 1 9 8 10
REMARK H PARENT 8 11
ROOT
ATOM      1  C   UNL     1       5.871  -1.431 -22.143  1.00  0.00     0.012 A 
ATOM      2  C   UNL     1       6.350  -1.898 -20.914  1.00  0.00     0.047 A 
ATOM      3  C   UNL     1       5.860  -3.093 -20.400  1.00  0.00     0.115 A 
ATOM      4  C   UNL     1       4.909  -3.828 -21.094  1.00  0.00     0.047 A 
ATOM      5  C   UNL     1       4.433  -3.361 -22.321  1.00  0.00     0.012 A 
ATOM      6  C   UNL     1       4.898  -2.149 -22.852  1.00  0.00    -0.026 A 
ENDROOT
BRANCH   6   7
ATOM      7  C   UNL     1       4.395  -1.710 -24.162  1.00  0.00     0.003 C 
ATOM      8  C   UNL     1       5.095  -0.960 -25.028  1.00  0.00    -0.030 C 
ATOM      9  C   UNL     1       4.565  -0.513 -26.352  1.00  0.00     0.035 C 
ENDBRANCH   6   7
BRANCH   3  10
ATOM     10  O   UNL     1       6.299  -3.587 -19.207  1.00  0.00    -0.508 OA
ATOM     11  H   UNL     1       6.527  -4.523 -19.326  1.00  0.00     0.293 HD
ENDBRANCH   3  10
TORSDOF 2
ENDMDL
MODEL 5
REMARK VINA RESULT:      -5.8      4.642      7.035
REMARK SMILES CC=Cc1ccc(O)cc1
REMARK SMILES IDX 5 1 6 2 7 3 9 4 10 5 4 6 3 7 2 8 1 9 8 10
REMARK H PARENT 8 11
ROOT
ATOM      1  C   UNL     1       3.451  -2.068 -23.548  1.00  0.00     0.012 A 
ATOM      2  C   UNL     1       3.214  -1.422 -24.767  1.00  0.00     0.047 A 
ATOM      3  C   UNL     1       4.277  -0.842 -25.450  1.00  0.00     0.115 A 
ATOM      4  C   UNL     1       5.567  -0.902 -24.940  1.00  0.00     0.047 A 
ATOM      5  C   UNL     1       5.801  -1.548 -23.724  1.00  0.00     0.012 A 
ATOM      6  C   UNL     1       4.744  -2.125 -23.008  1.00  0.00    -0.026 A 
ENDROOT
BRANCH   6   7
ATOM      7  C   UNL     1       5.039  -2.824 -21.748  1.00  0.00     0.003 C 
ATOM      8  C   UNL     1       6.049  -2.503 -20.924  1.00  0.00    -0.030 C 
ATOM      9  C   UNL     1       6.342  -3.231 -19.652  1.00  0.00     0.035 C 
ENDBRANCH   6   7
BRANCH   3  10
ATOM     10  O   UNL     1       4.093  -0.204 -26.641  1.00  0.00    -0.508 OA
ATOM     11  H   UNL     1       3.811   0.708 -26.462  1.00  0.00     0.293 HD
ENDBRANCH   3  10
TORSDOF 2
ENDMDL
MODEL 6
REMARK VINA RESULT:      -5.7      6.424      8.708
REMARK SMILES CC=Cc1ccc(O)cc1
REMARK SMILES IDX 5 1 6 2 7 3 9 4 10 5 4 6 3 7 2 8 1 9 8 10
REMARK H PARENT 8 11
ROOT
ATOM      1  C   UNL     1       6.053   0.491 -25.576  1.00  0.00     0.012 A 
ATOM      2  C   UNL     1       6.593   1.242 -26.626  1.00  0.00     0.047 A 
ATOM      3  C   UNL     1       6.241   0.939 -27.936  1.00  0.00     0.115 A 
ATOM      4  C   UNL     1       5.356  -0.095 -28.212  1.00  0.00     0.047 A 
ATOM      5  C   UNL     1       4.817  -0.844 -27.163  1.00  0.00     0.012 A 
ATOM      6  C   UNL     1       5.171  -0.568 -25.834  1.00  0.00    -0.026 A 
ENDROOT
BRANCH   6   7
ATOM      7  C   UNL     1       4.555  -1.358 -24.758  1.00  0.00     0.003 C 
ATOM      8  C   UNL     1       5.204  -1.777 -23.661  1.00  0.00    -0.030 C 
ATOM      9  C   UNL     1       4.566  -2.590 -22.581  1.00  0.00     0.035 C 
ENDBRANCH   6   7
BRANCH   3  10
ATOM     10  O   UNL     1       6.742   1.645 -28.989  1.00  0.00    -0.508 OA
ATOM     11  H   UNL     1       6.726   2.590 -28.763  1.00  0.00     0.293 HD
ENDBRANCH   3  10
TORSDOF 2
ENDMDL
MODEL 7
REMARK VINA RESULT:      -5.6     14.009     15.079
REMARK SMILES CC=Cc1ccc(O)cc1
REMARK SMILES IDX 5 1 6 2 7 3 9 4 10 5 4 6 3 7 2 8 1 9 8 10
REMARK H PARENT 8 11
ROOT
ATOM      1  C   UNL     1      -2.348   0.392 -28.445  1.00  0.00     0.012 A 
ATOM      2  C   UNL     1      -2.115   0.149 -29.803  1.00  0.00     0.047 A 
ATOM      3  C   UNL     1      -3.041  -0.586 -30.534  1.00  0.00     0.115 A 
ATOM      4  C   UNL     1      -4.194  -1.075 -29.934  1.00  0.00     0.047 A 
ATOM      5  C   UNL     1      -4.425  -0.830 -28.578  1.00  0.00     0.012 A 
ATOM      6  C   UNL     1      -3.498  -0.107 -27.815  1.00  0.00    -0.026 A 
ENDROOT
BRANCH   6   7
ATOM      7  C   UNL     1      -3.796   0.156 -26.399  1.00  0.00     0.003 C 
ATOM      8  C   UNL     1      -4.897  -0.277 -25.766  1.00  0.00    -0.030 C 
ATOM      9  C   UNL     1      -5.191   0.008 -24.328  1.00  0.00     0.035 C 
ENDBRANCH   6   7
BRANCH   3  10
ATOM     10  O   UNL     1      -2.856  -0.845 -31.860  1.00  0.00    -0.508 OA
ATOM     11  H   UNL     1      -3.190  -0.090 -32.372  1.00  0.00     0.293 HD
ENDBRANCH   3  10
TORSDOF 2
ENDMDL
MODEL 8
REMARK VINA RESULT:      -5.6     13.981     15.196
REMARK SMILES CC=Cc1ccc(O)cc1
REMARK SMILES IDX 5 1 6 2 7 3 9 4 10 5 4 6 3 7 2 8 1 9 8 10
REMARK H PARENT 8 11
ROOT
ATOM      1  C   UNL     1      -4.484  -0.928 -28.594  1.00  0.00     0.012 A 
ATOM      2  C   UNL     1      -4.259  -1.185 -29.950  1.00  0.00     0.047 A 
ATOM      3  C   UNL     1      -3.139  -0.643 -30.572  1.00  0.00     0.115 A 
ATOM      4  C   UNL     1      -2.243   0.143 -29.861  1.00  0.00     0.047 A 
ATOM      5  C   UNL     1      -2.469   0.398 -28.506  1.00  0.00     0.012 A 
ATOM      6  C   UNL     1      -3.600  -0.123 -27.861  1.00  0.00    -0.026 A 
ENDROOT
BRANCH   6   7
ATOM      7  C   UNL     1      -3.783   0.143 -26.427  1.00  0.00     0.003 C 
ATOM      8  C   UNL     1      -4.881  -0.191 -25.730  1.00  0.00    -0.030 C 
ATOM      9  C   UNL     1      -5.056   0.096 -24.273  1.00  0.00     0.035 C 
ENDBRANCH   6   7
BRANCH   3  10
ATOM     10  O   UNL     1      -2.880  -0.869 -31.891  1.00  0.00    -0.508 OA
ATOM     11  H   UNL     1      -2.695  -0.017 -32.320  1.00  0.00     0.293 HD
ENDBRANCH   3  10
TORSDOF 2
ENDMDL
MODEL 9
REMARK VINA RESULT:      -5.4     13.695     15.028
REMARK SMILES CC=Cc1ccc(O)cc1
REMARK SMILES IDX 5 1 6 2 7 3 9 4 10 5 4 6 3 7 2 8 1 9 8 10
REMARK H PARENT 8 11
ROOT
ATOM      1  C   UNL     1      -1.000  -8.850 -26.164  1.00  0.00     0.012 A 
ATOM      2  C   UNL     1      -2.069  -8.563 -27.020  1.00  0.00     0.047 A 
ATOM      3  C   UNL     1      -2.465  -9.509 -27.959  1.00  0.00     0.115 A 
ATOM      4  C   UNL     1      -1.817 -10.734 -28.051  1.00  0.00     0.047 A 
ATOM      5  C   UNL     1      -0.750 -11.018 -27.194  1.00  0.00     0.012 A 
ATOM      6  C   UNL     1      -0.321 -10.074 -26.251  1.00  0.00    -0.026 A 
ENDROOT
BRANCH   6   7
ATOM      7  C   UNL     1       0.783 -10.426 -25.347  1.00  0.00     0.003 C 
ATOM      8  C   UNL     1       0.867 -11.583 -24.672  1.00  0.00    -0.030 C 
ATOM      9  C   UNL     1       1.992 -11.922 -23.747  1.00  0.00     0.035 C 
ENDBRANCH   6   7
BRANCH   3  10
ATOM     10  O   UNL     1      -3.502  -9.273 -28.812  1.00  0.00    -0.508 OA
ATOM     11  H   UNL     1      -3.506  -8.329 -29.039  1.00  0.00     0.293 HD
ENDBRANCH   3  10
TORSDOF 2
ENDMDL
MODEL 10
REMARK VINA RESULT:      -5.4     18.235     20.939
REMARK SMILES CC=Cc1ccc(O)cc1
REMARK SMILES IDX 5 1 6 2 7 3 9 4 10 5 4 6 3 7 2 8 1 9 8 10
REMARK H PARENT 8 11
ROOT
ATOM      1  C   UNL     1      -7.917   0.837 -33.405  1.00  0.00     0.012 A 
ATOM      2  C   UNL     1      -9.176   0.346 -33.767  1.00  0.00     0.047 A 
ATOM      3  C   UNL     1     -10.196   0.315 -32.822  1.00  0.00     0.115 A 
ATOM      4  C   UNL     1      -9.979   0.769 -31.528  1.00  0.00     0.047 A 
ATOM      5  C   UNL     1      -8.721   1.259 -31.168  1.00  0.00     0.012 A 
ATOM      6  C   UNL     1      -7.672   1.284 -32.098  1.00  0.00    -0.026 A 
ENDROOT
BRANCH   6   7
ATOM      7  C   UNL     1      -6.374   1.838 -31.687  1.00  0.00     0.003 C 
ATOM      8  C   UNL     1      -6.210   2.722 -30.691  1.00  0.00    -0.030 C 
ATOM      9  C   UNL     1      -4.884   3.285 -30.292  1.00  0.00     0.035 C 
ENDBRANCH   6   7
BRANCH   3  10
ATOM     10  O   UNL     1     -11.438  -0.153 -33.132  1.00  0.00    -0.508 OA
ATOM     11  H   UNL     1     -12.083   0.557 -32.977  1.00  0.00     0.293 HD
ENDBRANCH   3  10
TORSDOF 2
ENDMDL
