MODEL 1
REMARK VINA RESULT:      -6.5      0.000      0.000
REMARK SMILES O=c1ccccc2c(O)cccc12
REMARK SMILES IDX 9 1 8 3 1 4 2 5 3 6 13 7 4 8 7 9 12 10 5 11 6 12 11 13 10 14
REMARK H PARENT 9 2
ROOT
ATOM      1  O   UNL     1      -5.946  -1.215 -30.873  1.00  0.00    -0.507 OA
ATOM      2  H   UNL     1      -5.651  -1.292 -29.951  1.00  0.00     0.293 HD
ENDROOT
BRANCH   1   3
ATOM      3  C   UNL     1      -7.291  -1.455 -30.937  1.00  0.00     0.123 A 
ATOM      4  O   UNL     1     -11.567  -0.526 -32.872  1.00  0.00    -0.289 OA
ATOM      5  C   UNL     1     -10.470  -0.035 -32.598  1.00  0.00     0.186 A 
ATOM      6  C   UNL     1     -10.216   1.364 -33.090  1.00  0.00     0.052 A 
ATOM      7  C   UNL     1      -9.495  -0.849 -31.786  1.00  0.00     0.033 A 
ATOM      8  C   UNL     1      -9.157   2.157 -32.856  1.00  0.00     0.004 A 
ATOM      9  C   UNL     1      -8.104  -0.604 -31.701  1.00  0.00     0.027 A 
ATOM     10  C   UNL     1     -10.026  -1.953 -31.093  1.00  0.00     0.013 A 
ATOM     11  C   UNL     1      -8.049   1.697 -32.055  1.00  0.00     0.001 A 
ATOM     12  C   UNL     1      -7.522   0.525 -32.443  1.00  0.00     0.013 A 
ATOM     13  C   UNL     1      -9.205  -2.787 -30.329  1.00  0.00     0.005 A 
ATOM     14  C   UNL     1      -7.836  -2.538 -30.250  1.00  0.00     0.047 A 
ENDBRANCH   1   3
TORSDOF 1
ENDMDL
MODEL 2
REMARK VINA RESULT:      -6.4      0.673      4.609
REMARK SMILES O=c1ccccc2c(O)cccc12
REMARK SMILES IDX 9 1 8 3 1 4 2 5 3 6 13 7 4 8 7 9 12 10 5 11 6 12 11 13 10 14
REMARK H PARENT 9 2
ROOT
ATOM      1  O   UNL     1     -11.396  -0.212 -32.905  1.00  0.00    -0.507 OA
ATOM      2  H   UNL     1     -11.492  -1.105 -32.536  1.00  0.00     0.293 HD
ENDROOT
BRANCH   1   3
ATOM      3  C   UNL     1     -10.113   0.222 -32.710  1.00  0.00     0.123 A 
ATOM      4  O   UNL     1      -5.652  -0.615 -31.199  1.00  0.00    -0.289 OA
ATOM      5  C   UNL     1      -6.836  -0.910 -31.020  1.00  0.00     0.186 A 
ATOM      6  C   UNL     1      -7.114  -2.015 -30.038  1.00  0.00     0.052 A 
ATOM      7  C   UNL     1      -7.894  -0.138 -31.767  1.00  0.00     0.033 A 
ATOM      8  C   UNL     1      -8.300  -2.465 -29.596  1.00  0.00     0.004 A 
ATOM      9  C   UNL     1      -9.226  -0.570 -31.966  1.00  0.00     0.027 A 
ATOM     10  C   UNL     1      -7.494   1.088 -32.331  1.00  0.00     0.013 A 
ATOM     11  C   UNL     1      -9.536  -1.897 -30.077  1.00  0.00     0.001 A 
ATOM     12  C   UNL     1      -9.658  -1.864 -31.413  1.00  0.00     0.013 A 
ATOM     13  C   UNL     1      -8.392   1.870 -33.063  1.00  0.00     0.005 A 
ATOM     14  C   UNL     1      -9.703   1.438 -33.253  1.00  0.00     0.047 A 
ENDBRANCH   1   3
TORSDOF 1
ENDMDL
MODEL 3
REMARK VINA RESULT:      -6.3      2.975      4.099
REMARK SMILES O=c1ccccc2c(O)cccc12
REMARK SMILES IDX 9 1 8 3 1 4 2 5 3 6 13 7 4 8 7 9 12 10 5 11 6 12 11 13 10 14
REMARK H PARENT 9 2
ROOT
ATOM      1  O   UNL     1      -2.179   0.508 -30.165  1.00  0.00    -0.507 OA
ATOM      2  H   UNL     1      -1.625   0.621 -29.375  1.00  0.00     0.293 HD
ENDROOT
BRANCH   1   3
ATOM      3  C   UNL     1      -3.266  -0.260 -29.847  1.00  0.00     0.123 A 
ATOM      4  O   UNL     1      -7.652  -1.852 -30.906  1.00  0.00    -0.289 OA
ATOM      5  C   UNL     1      -6.879  -0.900 -31.036  1.00  0.00     0.186 A 
ATOM      6  C   UNL     1      -7.338   0.223 -31.926  1.00  0.00     0.052 A 
ATOM      7  C   UNL     1      -5.571  -0.922 -30.288  1.00  0.00     0.033 A 
ATOM      8  C   UNL     1      -6.741   1.403 -32.165  1.00  0.00     0.004 A 
ATOM      9  C   UNL     1      -4.444  -0.125 -30.598  1.00  0.00     0.027 A 
ATOM     10  C   UNL     1      -5.474  -1.837 -29.223  1.00  0.00     0.013 A 
ATOM     11  C   UNL     1      -5.476   1.732 -31.552  1.00  0.00     0.001 A 
ATOM     12  C   UNL     1      -4.511   0.816 -31.727  1.00  0.00     0.013 A 
ATOM     13  C   UNL     1      -4.297  -1.954 -28.479  1.00  0.00     0.005 A 
ATOM     14  C   UNL     1      -3.191  -1.166 -28.791  1.00  0.00     0.047 A 
ENDBRANCH   1   3
TORSDOF 1
ENDMDL
MODEL 4
REMARK VINA RESULT:      -6.3      4.356      6.456
REMARK SMILES O=c1ccccc2c(O)cccc12
REMARK SMILES IDX 9 1 8 3 1 4 2 5 3 6 13 7 4 8 7 9 12 10 5 11 6 12 11 13 10 14
REMARK H PARENT 9 2
ROOT
ATOM      1  O   UNL     1      -6.429   2.799 -27.810  1.00  0.00    -0.507 OA
ATOM      2  H   UNL     1      -5.673   2.778 -27.202  1.00  0.00     0.293 HD
ENDROOT
BRANCH   1   3
ATOM      3  C   UNL     1      -6.060   2.254 -29.010  1.00  0.00     0.123 A 
ATOM      4  O   UNL     1      -3.261  -0.708 -31.516  1.00  0.00    -0.289 OA
ATOM      5  C   UNL     1      -3.310   0.004 -30.511  1.00  0.00     0.186 A 
ATOM      6  C   UNL     1      -2.132  -0.066 -29.578  1.00  0.00     0.052 A 
ATOM      7  C   UNL     1      -4.512   0.891 -30.311  1.00  0.00     0.033 A 
ATOM      8  C   UNL     1      -1.890   0.661 -28.475  1.00  0.00     0.004 A 
ATOM      9  C   UNL     1      -4.898   1.471 -29.079  1.00  0.00     0.027 A 
ATOM     10  C   UNL     1      -5.317   1.121 -31.442  1.00  0.00     0.013 A 
ATOM     11  C   UNL     1      -2.831   1.658 -28.023  1.00  0.00     0.001 A 
ATOM     12  C   UNL     1      -4.090   1.218 -27.875  1.00  0.00     0.013 A 
ATOM     13  C   UNL     1      -6.466   1.910 -31.359  1.00  0.00     0.005 A 
ATOM     14  C   UNL     1      -6.840   2.478 -30.143  1.00  0.00     0.047 A 
ENDBRANCH   1   3
TORSDOF 1
ENDMDL
MODEL 5
REMARK VINA RESULT:      -6.3      1.703      3.136
REMARK SMILES O=c1ccccc2c(O)cccc12
REMARK SMILES IDX 9 1 8 3 1 4 2 5 3 6 13 7 4 8 7 9 12 10 5 11 6 12 11 13 10 14
REMARK H PARENT 9 2
ROOT
ATOM      1  O   UNL     1      -9.807  -3.255 -30.857  1.00  0.00    -0.507 OA
ATOM      2  H   UNL     1     -10.282  -2.920 -31.635  1.00  0.00     0.293 HD
ENDROOT
BRANCH   1   3
ATOM      3  C   UNL     1      -8.621  -2.585 -30.729  1.00  0.00     0.123 A 
ATOM      4  O   UNL     1      -5.982   1.329 -31.503  1.00  0.00    -0.289 OA
ATOM      5  C   UNL     1      -6.908   0.649 -31.949  1.00  0.00     0.186 A 
ATOM      6  C   UNL     1      -7.636   1.201 -33.144  1.00  0.00     0.052 A 
ATOM      7  C   UNL     1      -7.219  -0.671 -31.289  1.00  0.00     0.033 A 
ATOM      8  C   UNL     1      -8.608   0.629 -33.873  1.00  0.00     0.004 A 
ATOM      9  C   UNL     1      -8.436  -1.380 -31.422  1.00  0.00     0.027 A 
ATOM     10  C   UNL     1      -6.219  -1.204 -30.454  1.00  0.00     0.013 A 
ATOM     11  C   UNL     1      -9.112  -0.682 -33.539  1.00  0.00     0.001 A 
ATOM     12  C   UNL     1      -9.508  -0.825 -32.265  1.00  0.00     0.013 A 
ATOM     13  C   UNL     1      -6.415  -2.411 -29.777  1.00  0.00     0.005 A 
ATOM     14  C   UNL     1      -7.617  -3.103 -29.914  1.00  0.00     0.047 A 
ENDBRANCH   1   3
TORSDOF 1
ENDMDL
MODEL 6
REMARK VINA RESULT:      -6.2      4.355      6.493
REMARK SMILES O=c1ccccc2c(O)cccc12
REMARK SMILES IDX 9 1 8 3 1 4 2 5 3 6 13 7 4 8 7 9 12 10 5 11 6 12 11 13 10 14
REMARK H PARENT 9 2
ROOT
ATOM      1  O   UNL     1      -3.053   3.455 -27.868  1.00  0.00    -0.507 OA
ATOM      2  H   UNL     1      -2.380   4.063 -28.214  1.00  0.00     0.293 HD
ENDROOT
BRANCH   1   3
ATOM      3  C   UNL     1      -3.806   2.978 -28.906  1.00  0.00     0.123 A 
ATOM      4  O   UNL     1      -5.973  -0.678 -31.102  1.00  0.00    -0.289 OA
ATOM      5  C   UNL     1      -5.022  -0.373 -30.380  1.00  0.00     0.186 A 
ATOM      6  C   UNL     1      -4.198  -1.508 -29.835  1.00  0.00     0.052 A 
ATOM      7  C   UNL     1      -4.747   1.087 -30.124  1.00  0.00     0.033 A 
ATOM      8  C   UNL     1      -3.069  -1.452 -29.108  1.00  0.00     0.004 A 
ATOM      9  C   UNL     1      -3.961   1.593 -29.062  1.00  0.00     0.027 A 
ATOM     10  C   UNL     1      -5.357   2.003 -31.003  1.00  0.00     0.013 A 
ATOM     11  C   UNL     1      -2.493  -0.185 -28.727  1.00  0.00     0.001 A 
ATOM     12  C   UNL     1      -3.340   0.656 -28.112  1.00  0.00     0.013 A 
ATOM     13  C   UNL     1      -5.186   3.379 -30.840  1.00  0.00     0.005 A 
ATOM     14  C   UNL     1      -4.410   3.869 -29.791  1.00  0.00     0.047 A 
ENDBRANCH   1   3
TORSDOF 1
ENDMDL
MODEL 7
REMARK VINA RESULT:      -6.2      2.849      5.828
REMARK SMILES O=c1ccccc2c(O)cccc12
REMARK SMILES IDX 9 1 8 3 1 4 2 5 3 6 13 7 4 8 7 9 12 10 5 11 6 12 11 13 10 14
REMARK H PARENT 9 2
ROOT
ATOM      1  O   UNL     1      -8.312  -1.403 -31.120  1.00  0.00    -0.507 OA
ATOM      2  H   UNL     1      -8.426  -1.952 -31.913  1.00  0.00     0.293 HD
ENDROOT
BRANCH   1   3
ATOM      3  C   UNL     1      -7.183  -0.641 -31.257  1.00  0.00     0.123 A 
ATOM      4  O   UNL     1      -2.503  -0.013 -30.485  1.00  0.00    -0.289 OA
ATOM      5  C   UNL     1      -3.526  -0.533 -30.034  1.00  0.00     0.186 A 
ATOM      6  C   UNL     1      -3.358  -1.413 -28.825  1.00  0.00     0.052 A 
ATOM      7  C   UNL     1      -4.845  -0.231 -30.700  1.00  0.00     0.033 A 
ATOM      8  C   UNL     1      -4.305  -2.018 -28.089  1.00  0.00     0.004 A 
ATOM      9  C   UNL     1      -6.022  -1.003 -30.557  1.00  0.00     0.027 A 
ATOM     10  C   UNL     1      -4.875   0.889 -31.551  1.00  0.00     0.013 A 
ATOM     11  C   UNL     1      -5.702  -1.890 -28.427  1.00  0.00     0.001 A 
ATOM     12  C   UNL     1      -6.005  -2.198 -29.698  1.00  0.00     0.013 A 
ATOM     13  C   UNL     1      -6.042   1.242 -32.234  1.00  0.00     0.005 A 
ATOM     14  C   UNL     1      -7.197   0.477 -32.088  1.00  0.00     0.047 A 
ENDBRANCH   1   3
TORSDOF 1
ENDMDL
MODEL 8
REMARK VINA RESULT:      -6.2      4.941      6.967
REMARK SMILES O=c1ccccc2c(O)cccc12
REMARK SMILES IDX 9 1 8 3 1 4 2 5 3 6 13 7 4 8 7 9 12 10 5 11 6 12 11 13 10 14
REMARK H PARENT 9 2
ROOT
ATOM      1  O   UNL     1      -3.466  -1.661 -30.666  1.00  0.00    -0.507 OA
ATOM      2  H   UNL     1      -3.344  -2.599 -30.446  1.00  0.00     0.293 HD
ENDROOT
BRANCH   1   3
ATOM      3  C   UNL     1      -3.303  -0.907 -29.536  1.00  0.00     0.123 A 
ATOM      4  O   UNL     1      -4.530   0.093 -25.021  1.00  0.00    -0.289 OA
ATOM      5  C   UNL     1      -4.950  -0.346 -26.094  1.00  0.00     0.186 A 
ATOM      6  C   UNL     1      -6.349  -0.900 -26.093  1.00  0.00     0.052 A 
ATOM      7  C   UNL     1      -4.057  -0.273 -27.306  1.00  0.00     0.033 A 
ATOM      8  C   UNL     1      -7.074  -1.350 -27.130  1.00  0.00     0.004 A 
ATOM      9  C   UNL     1      -4.222  -1.038 -28.485  1.00  0.00     0.027 A 
ATOM     10  C   UNL     1      -2.961   0.606 -27.224  1.00  0.00     0.013 A 
ATOM     11  C   UNL     1      -6.527  -1.368 -28.466  1.00  0.00     0.001 A 
ATOM     12  C   UNL     1      -5.342  -1.988 -28.580  1.00  0.00     0.013 A 
ATOM     13  C   UNL     1      -2.058   0.732 -28.283  1.00  0.00     0.005 A 
ATOM     14  C   UNL     1      -2.228  -0.025 -29.441  1.00  0.00     0.047 A 
ENDBRANCH   1   3
TORSDOF 1
ENDMDL
MODEL 9
REMARK VINA RESULT:      -6.1      4.136      6.088
REMARK SMILES O=c1ccccc2c(O)cccc12
REMARK SMILES IDX 9 1 8 3 1 4 2 5 3 6 13 7 4 8 7 9 12 10 5 11 6 12 11 13 10 14
REMARK H PARENT 9 2
ROOT
ATOM      1  O   UNL     1      -6.400  -1.374 -26.272  1.00  0.00    -0.507 OA
ATOM      2  H   UNL     1      -5.687  -0.888 -25.827  1.00  0.00     0.293 HD
ENDROOT
BRANCH   1   3
ATOM      3  C   UNL     1      -6.190  -1.345 -27.624  1.00  0.00     0.123 A 
ATOM      4  O   UNL     1      -3.191  -0.988 -31.334  1.00  0.00    -0.289 OA
ATOM      5  C   UNL     1      -3.370  -0.650 -30.162  1.00  0.00     0.186 A 
ATOM      6  C   UNL     1      -2.242   0.087 -29.494  1.00  0.00     0.052 A 
ATOM      7  C   UNL     1      -4.690  -0.973 -29.510  1.00  0.00     0.033 A 
ATOM      8  C   UNL     1      -2.210   0.642 -28.271  1.00  0.00     0.004 A 
ATOM      9  C   UNL     1      -4.923  -0.995 -28.114  1.00  0.00     0.027 A 
ATOM     10  C   UNL     1      -5.750  -1.308 -30.373  1.00  0.00     0.013 A 
ATOM     11  C   UNL     1      -3.350   0.561 -27.389  1.00  0.00     0.001 A 
ATOM     12  C   UNL     1      -3.821  -0.680 -27.191  1.00  0.00     0.013 A 
ATOM     13  C   UNL     1      -7.009  -1.646 -29.870  1.00  0.00     0.005 A 
ATOM     14  C   UNL     1      -7.230  -1.665 -28.494  1.00  0.00     0.047 A 
ENDBRANCH   1   3
TORSDOF 1
ENDMDL
MODEL 10
REMARK VINA RESULT:      -6.1      1.962      2.734
REMARK SMILES O=c1ccccc2c(O)cccc12
REMARK SMILES IDX 9 1 8 3 1 4 2 5 3 6 13 7 4 8 7 9 12 10 5 11 6 12 11 13 10 14
REMARK H PARENT 9 2
ROOT
ATOM      1  O   UNL     1      -4.405   1.720 -31.933  1.00  0.00    -0.507 OA
ATOM      2  H   UNL     1      -3.939   1.407 -32.725  1.00  0.00     0.293 HD
ENDROOT
BRANCH   1   3
ATOM      3  C   UNL     1      -5.157   0.698 -31.419  1.00  0.00     0.123 A 
ATOM      4  O   UNL     1      -9.027  -2.105 -31.648  1.00  0.00    -0.289 OA
ATOM      5  C   UNL     1      -8.592  -0.984 -31.919  1.00  0.00     0.186 A 
ATOM      6  C   UNL     1      -9.499  -0.083 -32.712  1.00  0.00     0.052 A 
ATOM      7  C   UNL     1      -7.220  -0.601 -31.425  1.00  0.00     0.033 A 
ATOM      8  C   UNL     1      -9.312   1.201 -33.059  1.00  0.00     0.004 A 
ATOM      9  C   UNL     1      -6.437   0.460 -31.939  1.00  0.00     0.027 A 
ATOM     10  C   UNL     1      -6.681  -1.394 -30.395  1.00  0.00     0.013 A 
ATOM     11  C   UNL     1      -8.105   1.902 -32.690  1.00  0.00     0.001 A 
ATOM     12  C   UNL     1      -6.967   1.282 -33.039  1.00  0.00     0.013 A 
ATOM     13  C   UNL     1      -5.408  -1.139 -29.881  1.00  0.00     0.005 A 
ATOM     14  C   UNL     1      -4.643  -0.092 -30.392  1.00  0.00     0.047 A 
ENDBRANCH   1   3
TORSDOF 1
ENDMDL
