MODEL 1
REMARK VINA RESULT:      -6.9      0.000      0.000
REMARK SMILES CC=Cc1ccc(O)c(OC)c1
REMARK SMILES IDX 9 1 7 2 6 3 5 4 4 5 12 6 10 7 11 8 8 9 3 11 2 12 1 13
REMARK H PARENT 8 10
ROOT
ATOM      1  C   UNL     1       6.703  -1.050 -18.208  1.00  0.00     0.161 A 
ATOM      2  C   UNL     1       6.326  -2.181 -17.483  1.00  0.00     0.157 A 
ATOM      3  C   UNL     1       5.950  -3.348 -18.137  1.00  0.00     0.051 A 
ATOM      4  C   UNL     1       5.880  -3.365 -19.532  1.00  0.00     0.012 A 
ATOM      5  C   UNL     1       6.176  -2.213 -20.276  1.00  0.00    -0.022 A 
ATOM      6  C   UNL     1       6.612  -1.063 -19.603  1.00  0.00     0.058 A 
ENDROOT
BRANCH   1   7
ATOM      7  O   UNL     1       7.087   0.124 -17.616  1.00  0.00    -0.493 OA
ATOM      8  C   UNL     1       8.505   0.244 -17.479  1.00  0.00     0.278 C 
ENDBRANCH   1   7
BRANCH   2   9
ATOM      9  O   UNL     1       6.255  -2.172 -16.120  1.00  0.00    -0.504 OA
ATOM     10  H   UNL     1       5.346  -1.898 -15.904  1.00  0.00     0.293 HD
ENDBRANCH   2   9
BRANCH   5  11
ATOM     11  C   UNL     1       6.065  -2.191 -21.740  1.00  0.00     0.003 C 
ATOM     12  C   UNL     1       4.892  -2.098 -22.387  1.00  0.00    -0.030 C 
ATOM     13  C   UNL     1       4.758  -2.040 -23.874  1.00  0.00     0.035 C 
ENDBRANCH   5  11
TORSDOF 3
ENDMDL
MODEL 2
REMARK VINA RESULT:      -6.0     13.361     14.896
REMARK SMILES CC=Cc1ccc(O)c(OC)c1
REMARK SMILES IDX 9 1 7 2 6 3 5 4 4 5 12 6 10 7 11 8 8 9 3 11 2 12 1 13
REMARK H PARENT 8 10
ROOT
ATOM      1  C   UNL     1      -4.348  -0.792 -29.973  1.00  0.00     0.161 A 
ATOM      2  C   UNL     1      -3.118  -0.473 -30.548  1.00  0.00     0.157 A 
ATOM      3  C   UNL     1      -2.082   0.031 -29.770  1.00  0.00     0.051 A 
ATOM      4  C   UNL     1      -2.301   0.288 -28.415  1.00  0.00     0.012 A 
ATOM      5  C   UNL     1      -3.556   0.050 -27.836  1.00  0.00    -0.022 A 
ATOM      6  C   UNL     1      -4.571  -0.515 -28.621  1.00  0.00     0.058 A 
ENDROOT
BRANCH   1   7
ATOM      7  O   UNL     1      -5.401  -1.296 -30.691  1.00  0.00    -0.493 OA
ATOM      8  C   UNL     1      -6.336  -0.293 -31.094  1.00  0.00     0.278 C 
ENDBRANCH   1   7
BRANCH   2   9
ATOM      9  O   UNL     1      -2.900  -0.586 -31.891  1.00  0.00    -0.504 OA
ATOM     10  H   UNL     1      -1.953  -0.792 -31.988  1.00  0.00     0.293 HD
ENDBRANCH   2   9
BRANCH   5  11
ATOM     11  C   UNL     1      -3.825   0.355 -26.424  1.00  0.00     0.003 C 
ATOM     12  C   UNL     1      -4.792  -0.247 -25.713  1.00  0.00    -0.030 C 
ATOM     13  C   UNL     1      -5.062   0.024 -24.269  1.00  0.00     0.035 C 
ENDBRANCH   5  11
TORSDOF 3
ENDMDL
MODEL 3
REMARK VINA RESULT:      -5.8      2.263      3.529
REMARK SMILES CC=Cc1ccc(O)c(OC)c1
REMARK SMILES IDX 9 1 7 2 6 3 5 4 4 5 12 6 10 7 11 8 8 9 3 11 2 12 1 13
REMARK H PARENT 8 10
ROOT
ATOM      1  C   UNL     1       9.312   0.035 -16.862  1.00  0.00     0.161 A 
ATOM      2  C   UNL     1       8.407   1.011 -16.443  1.00  0.00     0.157 A 
ATOM      3  C   UNL     1       7.099   1.012 -16.912  1.00  0.00     0.051 A 
ATOM      4  C   UNL     1       6.709   0.070 -17.868  1.00  0.00     0.012 A 
ATOM      5  C   UNL     1       7.627  -0.868 -18.362  1.00  0.00    -0.022 A 
ATOM      6  C   UNL     1       8.925  -0.893 -17.833  1.00  0.00     0.058 A 
ENDROOT
BRANCH   1   7
ATOM      7  O   UNL     1      10.610  -0.017 -16.427  1.00  0.00    -0.493 OA
ATOM      8  C   UNL     1      10.743  -0.590 -15.124  1.00  0.00     0.278 C 
ENDBRANCH   1   7
BRANCH   2   9
ATOM      9  O   UNL     1       8.778   2.027 -15.610  1.00  0.00    -0.504 OA
ATOM     10  H   UNL     1       8.284   2.809 -15.911  1.00  0.00     0.293 HD
ENDBRANCH   2   9
BRANCH   5  11
ATOM     11  C   UNL     1       7.255  -1.838 -19.400  1.00  0.00     0.003 C 
ATOM     12  C   UNL     1       6.245  -1.642 -20.262  1.00  0.00    -0.030 C 
ATOM     13  C   UNL     1       5.870  -2.600 -21.346  1.00  0.00     0.035 C 
ENDBRANCH   5  11
TORSDOF 3
ENDMDL
MODEL 4
REMARK VINA RESULT:      -5.6     17.366     20.020
REMARK SMILES CC=Cc1ccc(O)c(OC)c1
REMARK SMILES IDX 9 1 7 2 6 3 5 4 4 5 12 6 10 7 11 8 8 9 3 11 2 12 1 13
REMARK H PARENT 8 10
ROOT
ATOM      1  C   UNL     1      -9.879   0.432 -31.475  1.00  0.00     0.161 A 
ATOM      2  C   UNL     1     -10.169   0.257 -32.829  1.00  0.00     0.157 A 
ATOM      3  C   UNL     1      -9.212   0.531 -33.799  1.00  0.00     0.051 A 
ATOM      4  C   UNL     1      -7.974   1.054 -33.418  1.00  0.00     0.012 A 
ATOM      5  C   UNL     1      -7.693   1.313 -32.068  1.00  0.00    -0.022 A 
ATOM      6  C   UNL     1      -8.647   0.976 -31.098  1.00  0.00     0.058 A 
ENDROOT
BRANCH   1   7
ATOM      7  O   UNL     1     -10.781   0.173 -30.477  1.00  0.00    -0.493 OA
ATOM      8  C   UNL     1     -10.216  -0.558 -29.387  1.00  0.00     0.278 C 
ENDBRANCH   1   7
BRANCH   2   9
ATOM      9  O   UNL     1     -11.406  -0.129 -33.255  1.00  0.00    -0.504 OA
ATOM     10  H   UNL     1     -11.907   0.694 -33.394  1.00  0.00     0.293 HD
ENDBRANCH   2   9
BRANCH   5  11
ATOM     11  C   UNL     1      -6.417   1.907 -31.646  1.00  0.00     0.003 C 
ATOM     12  C   UNL     1      -6.294   2.692 -30.563  1.00  0.00    -0.030 C 
ATOM     13  C   UNL     1      -5.002   3.279 -30.097  1.00  0.00     0.035 C 
ENDBRANCH   5  11
TORSDOF 3
ENDMDL
MODEL 5
REMARK VINA RESULT:      -5.6     12.900     14.614
REMARK SMILES CC=Cc1ccc(O)c(OC)c1
REMARK SMILES IDX 9 1 7 2 6 3 5 4 4 5 12 6 10 7 11 8 8 9 3 11 2 12 1 13
REMARK H PARENT 8 10
ROOT
ATOM      1  C   UNL     1      -0.691 -10.566 -27.182  1.00  0.00     0.161 A 
ATOM      2  C   UNL     1      -0.417  -9.204 -27.322  1.00  0.00     0.157 A 
ATOM      3  C   UNL     1      -1.451  -8.281 -27.419  1.00  0.00     0.051 A 
ATOM      4  C   UNL     1      -2.774  -8.728 -27.449  1.00  0.00     0.012 A 
ATOM      5  C   UNL     1      -3.067 -10.099 -27.392  1.00  0.00    -0.022 A 
ATOM      6  C   UNL     1      -2.015 -11.012 -27.234  1.00  0.00     0.058 A 
ENDROOT
BRANCH   1   7
ATOM      7  O   UNL     1       0.288 -11.518 -27.076  1.00  0.00    -0.493 OA
ATOM      8  C   UNL     1       0.587 -11.866 -25.723  1.00  0.00     0.278 C 
ENDBRANCH   1   7
BRANCH   2   9
ATOM      9  O   UNL     1       0.860  -8.734 -27.425  1.00  0.00    -0.504 OA
ATOM     10  H   UNL     1       0.786  -7.864 -27.856  1.00  0.00     0.293 HD
ENDBRANCH   2   9
BRANCH   5  11
ATOM     11  C   UNL     1      -4.446 -10.598 -27.470  1.00  0.00     0.003 C 
ATOM     12  C   UNL     1      -5.119 -11.067 -26.407  1.00  0.00    -0.030 C 
ATOM     13  C   UNL     1      -6.533 -11.549 -26.457  1.00  0.00     0.035 C 
ENDBRANCH   5  11
TORSDOF 3
ENDMDL
MODEL 6
REMARK VINA RESULT:      -5.5     13.396     14.946
REMARK SMILES CC=Cc1ccc(O)c(OC)c1
REMARK SMILES IDX 9 1 7 2 6 3 5 4 4 5 12 6 10 7 11 8 8 9 3 11 2 12 1 13
REMARK H PARENT 8 10
ROOT
ATOM      1  C   UNL     1      -4.178   0.528 -29.925  1.00  0.00     0.161 A 
ATOM      2  C   UNL     1      -3.568  -0.556 -30.557  1.00  0.00     0.157 A 
ATOM      3  C   UNL     1      -3.404  -1.764 -29.890  1.00  0.00     0.051 A 
ATOM      4  C   UNL     1      -3.787  -1.869 -28.551  1.00  0.00     0.012 A 
ATOM      5  C   UNL     1      -4.327  -0.766 -27.873  1.00  0.00    -0.022 A 
ATOM      6  C   UNL     1      -4.541   0.427 -28.579  1.00  0.00     0.058 A 
ENDROOT
BRANCH   1   7
ATOM      7  O   UNL     1      -4.370   1.739 -30.536  1.00  0.00    -0.493 OA
ATOM      8  C   UNL     1      -5.679   1.884 -31.092  1.00  0.00     0.278 C 
ENDBRANCH   1   7
BRANCH   2   9
ATOM      9  O   UNL     1      -3.063  -0.461 -31.821  1.00  0.00    -0.504 OA
ATOM     10  H   UNL     1      -2.840  -1.371 -32.085  1.00  0.00     0.293 HD
ENDBRANCH   2   9
BRANCH   5  11
ATOM     11  C   UNL     1      -4.694  -0.836 -26.453  1.00  0.00     0.003 C 
ATOM     12  C   UNL     1      -4.513   0.181 -25.595  1.00  0.00    -0.030 C 
ATOM     13  C   UNL     1      -4.909   0.143 -24.155  1.00  0.00     0.035 C 
ENDBRANCH   5  11
TORSDOF 3
ENDMDL
MODEL 7
REMARK VINA RESULT:      -5.5     16.715     19.782
REMARK SMILES CC=Cc1ccc(O)c(OC)c1
REMARK SMILES IDX 9 1 7 2 6 3 5 4 4 5 12 6 10 7 11 8 8 9 3 11 2 12 1 13
REMARK H PARENT 8 10
ROOT
ATOM      1  C   UNL     1      -9.320  -0.847 -32.047  1.00  0.00     0.161 A 
ATOM      2  C   UNL     1      -9.886  -0.133 -33.104  1.00  0.00     0.157 A 
ATOM      3  C   UNL     1      -9.136   0.799 -33.811  1.00  0.00     0.051 A 
ATOM      4  C   UNL     1      -7.826   1.074 -33.412  1.00  0.00     0.012 A 
ATOM      5  C   UNL     1      -7.266   0.426 -32.302  1.00  0.00    -0.022 A 
ATOM      6  C   UNL     1      -8.016  -0.555 -31.637  1.00  0.00     0.058 A 
ENDROOT
BRANCH   1   7
ATOM      7  O   UNL     1     -10.010  -1.781 -31.320  1.00  0.00    -0.493 OA
ATOM      8  C   UNL     1      -9.204  -2.895 -30.928  1.00  0.00     0.278 C 
ENDBRANCH   1   7
BRANCH   2   9
ATOM      9  O   UNL     1     -11.200  -0.276 -33.447  1.00  0.00    -0.504 OA
ATOM     10  H   UNL     1     -11.548  -0.980 -32.870  1.00  0.00     0.293 HD
ENDBRANCH   2   9
BRANCH   5  11
ATOM     11  C   UNL     1      -5.907   0.731 -31.834  1.00  0.00     0.003 C 
ATOM     12  C   UNL     1      -5.199  -0.092 -31.045  1.00  0.00    -0.030 C 
ATOM     13  C   UNL     1      -3.804   0.184 -30.584  1.00  0.00     0.035 C 
ENDBRANCH   5  11
TORSDOF 3
ENDMDL
MODEL 8
REMARK VINA RESULT:      -5.3     12.975     15.099
REMARK SMILES CC=Cc1ccc(O)c(OC)c1
REMARK SMILES IDX 9 1 7 2 6 3 5 4 4 5 12 6 10 7 11 8 8 9 3 11 2 12 1 13
REMARK H PARENT 8 10
ROOT
ATOM      1  C   UNL     1      -3.287   1.824 -29.004  1.00  0.00     0.161 A 
ATOM      2  C   UNL     1      -2.467   0.781 -28.573  1.00  0.00     0.157 A 
ATOM      3  C   UNL     1      -2.644  -0.508 -29.063  1.00  0.00     0.051 A 
ATOM      4  C   UNL     1      -3.700  -0.772 -29.939  1.00  0.00     0.012 A 
ATOM      5  C   UNL     1      -4.584   0.247 -30.321  1.00  0.00    -0.022 A 
ATOM      6  C   UNL     1      -4.354   1.553 -29.864  1.00  0.00     0.058 A 
ENDROOT
BRANCH   1   7
ATOM      7  O   UNL     1      -3.153   3.113 -28.559  1.00  0.00    -0.493 OA
ATOM      8  C   UNL     1      -4.321   3.907 -28.780  1.00  0.00     0.278 C 
ENDBRANCH   1   7
BRANCH   2   9
ATOM      9  O   UNL     1      -1.506   0.966 -27.621  1.00  0.00    -0.504 OA
ATOM     10  H   UNL     1      -0.750   0.420 -27.900  1.00  0.00     0.293 HD
ENDBRANCH   2   9
BRANCH   5  11
ATOM     11  C   UNL     1      -5.729  -0.015 -31.204  1.00  0.00     0.003 C 
ATOM     12  C   UNL     1      -6.308   0.934 -31.957  1.00  0.00    -0.030 C 
ATOM     13  C   UNL     1      -7.451   0.684 -32.886  1.00  0.00     0.035 C 
ENDBRANCH   5  11
TORSDOF 3
ENDMDL
MODEL 9
REMARK VINA RESULT:      -5.3     15.037     17.507
REMARK SMILES CC=Cc1ccc(O)c(OC)c1
REMARK SMILES IDX 9 1 7 2 6 3 5 4 4 5 12 6 10 7 11 8 8 9 3 11 2 12 1 13
REMARK H PARENT 8 10
ROOT
ATOM      1  C   UNL     1      -4.841   0.287 -30.885  1.00  0.00     0.161 A 
ATOM      2  C   UNL     1      -4.321   1.431 -30.278  1.00  0.00     0.157 A 
ATOM      3  C   UNL     1      -5.069   2.601 -30.215  1.00  0.00     0.051 A 
ATOM      4  C   UNL     1      -6.323   2.651 -30.828  1.00  0.00     0.012 A 
ATOM      5  C   UNL     1      -6.829   1.537 -31.513  1.00  0.00    -0.022 A 
ATOM      6  C   UNL     1      -6.087   0.347 -31.515  1.00  0.00     0.058 A 
ENDROOT
BRANCH   1   7
ATOM      7  O   UNL     1      -4.151  -0.893 -30.971  1.00  0.00    -0.493 OA
ATOM      8  C   UNL     1      -4.371  -1.753 -29.850  1.00  0.00     0.278 C 
ENDBRANCH   1   7
BRANCH   2   9
ATOM      9  O   UNL     1      -3.051   1.467 -29.779  1.00  0.00    -0.504 OA
ATOM     10  H   UNL     1      -2.592   2.167 -30.277  1.00  0.00     0.293 HD
ENDBRANCH   2   9
BRANCH   5  11
ATOM     11  C   UNL     1      -8.123   1.579 -32.206  1.00  0.00     0.003 C 
ATOM     12  C   UNL     1      -8.464   0.720 -33.180  1.00  0.00    -0.030 C 
ATOM     13  C   UNL     1      -9.787   0.724 -33.875  1.00  0.00     0.035 C 
ENDBRANCH   5  11
TORSDOF 3
ENDMDL
MODEL 10
REMARK VINA RESULT:      -5.2      1.889      5.022
REMARK SMILES CC=Cc1ccc(O)c(OC)c1
REMARK SMILES IDX 9 1 7 2 6 3 5 4 4 5 12 6 10 7 11 8 8 9 3 11 2 12 1 13
REMARK H PARENT 8 10
ROOT
ATOM      1  C   UNL     1       7.004  -1.991 -19.089  1.00  0.00     0.161 A 
ATOM      2  C   UNL     1       6.272  -2.616 -18.079  1.00  0.00     0.157 A 
ATOM      3  C   UNL     1       6.229  -2.078 -16.799  1.00  0.00     0.051 A 
ATOM      4  C   UNL     1       6.985  -0.941 -16.504  1.00  0.00     0.012 A 
ATOM      5  C   UNL     1       7.791  -0.345 -17.484  1.00  0.00    -0.022 A 
ATOM      6  C   UNL     1       7.775  -0.865 -18.786  1.00  0.00     0.058 A 
ENDROOT
BRANCH   1   7
ATOM      7  O   UNL     1       7.076  -2.474 -20.369  1.00  0.00    -0.493 OA
ATOM      8  C   UNL     1       5.972  -2.072 -21.183  1.00  0.00     0.278 C 
ENDBRANCH   1   7
BRANCH   2   9
ATOM      9  O   UNL     1       5.622  -3.799 -18.288  1.00  0.00    -0.504 OA
ATOM     10  H   UNL     1       6.242  -4.355 -18.792  1.00  0.00     0.293 HD
ENDBRANCH   2   9
BRANCH   5  11
ATOM     11  C   UNL     1       8.631   0.823 -17.187  1.00  0.00     0.003 C 
ATOM     12  C   UNL     1       9.538   0.844 -16.197  1.00  0.00    -0.030 C 
ATOM     13  C   UNL     1      10.426   2.008 -15.898  1.00  0.00     0.035 C 
ENDBRANCH   5  11
TORSDOF 3
ENDMDL
