MODEL 1
REMARK VINA RESULT:      -5.5      0.000      0.000
REMARK SMILES CC=Cc1ccc(OC)cc1OC
REMARK SMILES IDX 7 1 10 2 11 3 4 4 5 5 6 6 8 7 9 8 12 9 13 10 3 11 2 12 1 13
REMARK H PARENT
ROOT
ATOM      1  C   UNL     1      -3.517  -0.769 -29.054  1.00  0.00     0.122 A 
ATOM      2  C   UNL     1      -4.252  -0.418 -30.190  1.00  0.00     0.093 A 
ATOM      3  C   UNL     1      -5.545  -0.928 -30.390  1.00  0.00     0.129 A 
ATOM      4  C   UNL     1      -6.117  -1.793 -29.431  1.00  0.00     0.016 A 
ATOM      5  C   UNL     1      -5.360  -2.151 -28.306  1.00  0.00     0.016 A 
ATOM      6  C   UNL     1      -4.076  -1.638 -28.119  1.00  0.00     0.047 A 
ENDROOT
BRANCH   1   7
ATOM      7  O   UNL     1      -2.254  -0.343 -28.747  1.00  0.00    -0.497 OA
ATOM      8  C   UNL     1      -2.139   0.831 -27.953  1.00  0.00     0.278 C 
ENDBRANCH   1   7
BRANCH   3   9
ATOM      9  O   UNL     1      -6.326  -0.636 -31.483  1.00  0.00    -0.496 OA
ATOM     10  C   UNL     1      -6.478   0.729 -31.849  1.00  0.00     0.278 C 
ENDBRANCH   3   9
BRANCH   4  11
ATOM     11  C   UNL     1      -7.462  -2.365 -29.636  1.00  0.00     0.007 C 
ATOM     12  C   UNL     1      -7.705  -3.630 -30.016  1.00  0.00    -0.030 C 
ATOM     13  C   UNL     1      -9.079  -4.187 -30.200  1.00  0.00     0.035 C 
ENDBRANCH   4  11
TORSDOF 3
ENDMDL
MODEL 2
REMARK VINA RESULT:      -5.4      2.385      5.520
REMARK SMILES CC=Cc1ccc(OC)cc1OC
REMARK SMILES IDX 7 1 10 2 11 3 4 4 5 5 6 6 8 7 9 8 12 9 13 10 3 11 2 12 1 13
REMARK H PARENT
ROOT
ATOM      1  C   UNL     1      -8.617  -0.174 -32.748  1.00  0.00     0.122 A 
ATOM      2  C   UNL     1      -8.825  -1.343 -32.012  1.00  0.00     0.093 A 
ATOM      3  C   UNL     1      -7.895  -1.751 -31.041  1.00  0.00     0.129 A 
ATOM      4  C   UNL     1      -6.746  -0.968 -30.795  1.00  0.00     0.016 A 
ATOM      5  C   UNL     1      -6.542   0.193 -31.555  1.00  0.00     0.016 A 
ATOM      6  C   UNL     1      -7.472   0.586 -32.518  1.00  0.00     0.047 A 
ENDROOT
BRANCH   1   7
ATOM      7  O   UNL     1      -9.442   0.326 -33.718  1.00  0.00    -0.497 OA
ATOM      8  C   UNL     1     -10.116   1.545 -33.434  1.00  0.00     0.278 C 
ENDBRANCH   1   7
BRANCH   3   9
ATOM      9  O   UNL     1      -8.026  -2.890 -30.281  1.00  0.00    -0.496 OA
ATOM     10  C   UNL     1      -9.082  -3.785 -30.598  1.00  0.00     0.278 C 
ENDBRANCH   3   9
BRANCH   4  11
ATOM     11  C   UNL     1      -5.741  -1.392 -29.800  1.00  0.00     0.007 C 
ATOM     12  C   UNL     1      -4.413  -1.385 -30.004  1.00  0.00    -0.030 C 
ATOM     13  C   UNL     1      -3.417  -1.805 -28.974  1.00  0.00     0.035 C 
ENDBRANCH   4  11
TORSDOF 3
ENDMDL
MODEL 3
REMARK VINA RESULT:      -5.4      2.355      5.289
REMARK SMILES CC=Cc1ccc(OC)cc1OC
REMARK SMILES IDX 7 1 10 2 11 3 4 4 5 5 6 6 8 7 9 8 12 9 13 10 3 11 2 12 1 13
REMARK H PARENT
ROOT
ATOM      1  C   UNL     1      -8.039   0.474 -32.971  1.00  0.00     0.122 A 
ATOM      2  C   UNL     1      -6.904   1.256 -32.738  1.00  0.00     0.093 A 
ATOM      3  C   UNL     1      -5.994   0.912 -31.725  1.00  0.00     0.129 A 
ATOM      4  C   UNL     1      -6.218  -0.242 -30.941  1.00  0.00     0.016 A 
ATOM      5  C   UNL     1      -7.370  -1.006 -31.173  1.00  0.00     0.016 A 
ATOM      6  C   UNL     1      -8.267  -0.652 -32.182  1.00  0.00     0.047 A 
ENDROOT
BRANCH   1   7
ATOM      7  O   UNL     1      -8.995   0.704 -33.920  1.00  0.00    -0.497 OA
ATOM      8  C   UNL     1     -10.281   0.138 -33.700  1.00  0.00     0.278 C 
ENDBRANCH   1   7
BRANCH   3   9
ATOM      9  O   UNL     1      -4.860   1.632 -31.431  1.00  0.00    -0.496 OA
ATOM     10  C   UNL     1      -5.016   2.882 -30.774  1.00  0.00     0.278 C 
ENDBRANCH   3   9
BRANCH   4  11
ATOM     11  C   UNL     1      -5.291  -0.606 -29.851  1.00  0.00     0.007 C 
ATOM     12  C   UNL     1      -4.337  -1.547 -29.941  1.00  0.00    -0.030 C 
ATOM     13  C   UNL     1      -3.402  -1.884 -28.826  1.00  0.00     0.035 C 
ENDBRANCH   4  11
TORSDOF 3
ENDMDL
MODEL 4
REMARK VINA RESULT:      -5.4      1.874      2.783
REMARK SMILES CC=Cc1ccc(OC)cc1OC
REMARK SMILES IDX 7 1 10 2 11 3 4 4 5 5 6 6 8 7 9 8 12 9 13 10 3 11 2 12 1 13
REMARK H PARENT
ROOT
ATOM      1  C   UNL     1      -3.358  -0.773 -28.545  1.00  0.00     0.122 A 
ATOM      2  C   UNL     1      -4.140  -0.924 -27.397  1.00  0.00     0.093 A 
ATOM      3  C   UNL     1      -5.379  -1.583 -27.458  1.00  0.00     0.129 A 
ATOM      4  C   UNL     1      -5.836  -2.111 -28.686  1.00  0.00     0.016 A 
ATOM      5  C   UNL     1      -5.049  -1.935 -29.833  1.00  0.00     0.016 A 
ATOM      6  C   UNL     1      -3.820  -1.277 -29.759  1.00  0.00     0.047 A 
ENDROOT
BRANCH   1   7
ATOM      7  O   UNL     1      -2.141  -0.153 -28.616  1.00  0.00    -0.497 OA
ATOM      8  C   UNL     1      -2.017   1.110 -27.973  1.00  0.00     0.278 C 
ENDBRANCH   1   7
BRANCH   3   9
ATOM      9  O   UNL     1      -6.208  -1.765 -26.375  1.00  0.00    -0.496 OA
ATOM     10  C   UNL     1      -5.877  -1.103 -25.163  1.00  0.00     0.278 C 
ENDBRANCH   3   9
BRANCH   4  11
ATOM     11  C   UNL     1      -7.148  -2.780 -28.779  1.00  0.00     0.007 C 
ATOM     12  C   UNL     1      -7.643  -3.339 -29.896  1.00  0.00    -0.030 C 
ATOM     13  C   UNL     1      -8.969  -4.025 -29.958  1.00  0.00     0.035 C 
ENDBRANCH   4  11
TORSDOF 3
ENDMDL
MODEL 5
REMARK VINA RESULT:      -5.3      1.804      2.888
REMARK SMILES CC=Cc1ccc(OC)cc1OC
REMARK SMILES IDX 7 1 10 2 11 3 4 4 5 5 6 6 8 7 9 8 12 9 13 10 3 11 2 12 1 13
REMARK H PARENT
ROOT
ATOM      1  C   UNL     1      -6.104  -0.995 -30.486  1.00  0.00     0.122 A 
ATOM      2  C   UNL     1      -7.193  -0.675 -31.301  1.00  0.00     0.093 A 
ATOM      3  C   UNL     1      -8.307  -1.529 -31.373  1.00  0.00     0.129 A 
ATOM      4  C   UNL     1      -8.335  -2.714 -30.605  1.00  0.00     0.016 A 
ATOM      5  C   UNL     1      -7.227  -3.030 -29.806  1.00  0.00     0.016 A 
ATOM      6  C   UNL     1      -6.126  -2.175 -29.745  1.00  0.00     0.047 A 
ENDROOT
BRANCH   1   7
ATOM      7  O   UNL     1      -4.966  -0.251 -30.333  1.00  0.00    -0.497 OA
ATOM      8  C   UNL     1      -3.731  -0.954 -30.284  1.00  0.00     0.278 C 
ENDBRANCH   1   7
BRANCH   3   9
ATOM      9  O   UNL     1      -9.412  -1.287 -32.155  1.00  0.00    -0.496 OA
ATOM     10  C   UNL     1      -9.231  -0.551 -33.356  1.00  0.00     0.278 C 
ENDBRANCH   3   9
BRANCH   4  11
ATOM     11  C   UNL     1      -9.481  -3.640 -30.688  1.00  0.00     0.007 C 
ATOM     12  C   UNL     1      -9.677  -4.689 -29.871  1.00  0.00    -0.030 C 
ATOM     13  C   UNL     1     -10.856  -5.601 -29.967  1.00  0.00     0.035 C 
ENDBRANCH   4  11
TORSDOF 3
ENDMDL
MODEL 6
REMARK VINA RESULT:      -5.3      2.881      4.124
REMARK SMILES CC=Cc1ccc(OC)cc1OC
REMARK SMILES IDX 7 1 10 2 11 3 4 4 5 5 6 6 8 7 9 8 12 9 13 10 3 11 2 12 1 13
REMARK H PARENT
ROOT
ATOM      1  C   UNL     1      -3.876   2.514 -29.222  1.00  0.00     0.122 A 
ATOM      2  C   UNL     1      -3.711   1.170 -29.567  1.00  0.00     0.093 A 
ATOM      3  C   UNL     1      -4.588   0.552 -30.474  1.00  0.00     0.129 A 
ATOM      4  C   UNL     1      -5.638   1.296 -31.056  1.00  0.00     0.016 A 
ATOM      5  C   UNL     1      -5.802   2.639 -30.686  1.00  0.00     0.016 A 
ATOM      6  C   UNL     1      -4.925   3.240 -29.782  1.00  0.00     0.047 A 
ENDROOT
BRANCH   1   7
ATOM      7  O   UNL     1      -3.095   3.225 -28.354  1.00  0.00    -0.497 OA
ATOM      8  C   UNL     1      -3.202   4.643 -28.394  1.00  0.00     0.278 C 
ENDBRANCH   1   7
BRANCH   3   9
ATOM      9  O   UNL     1      -4.495  -0.766 -30.857  1.00  0.00    -0.496 OA
ATOM     10  C   UNL     1      -3.727  -1.644 -30.046  1.00  0.00     0.278 C 
ENDBRANCH   3   9
BRANCH   4  11
ATOM     11  C   UNL     1      -6.589   0.659 -31.988  1.00  0.00     0.007 C 
ATOM     12  C   UNL     1      -7.320   1.318 -32.902  1.00  0.00    -0.030 C 
ATOM     13  C   UNL     1      -8.264   0.645 -33.845  1.00  0.00     0.035 C 
ENDBRANCH   4  11
TORSDOF 3
ENDMDL
MODEL 7
REMARK VINA RESULT:      -5.3      2.155      5.535
REMARK SMILES CC=Cc1ccc(OC)cc1OC
REMARK SMILES IDX 7 1 10 2 11 3 4 4 5 5 6 6 8 7 9 8 12 9 13 10 3 11 2 12 1 13
REMARK H PARENT
ROOT
ATOM      1  C   UNL     1      -9.444  -3.955 -30.400  1.00  0.00     0.122 A 
ATOM      2  C   UNL     1      -9.044  -2.839 -31.141  1.00  0.00     0.093 A 
ATOM      3  C   UNL     1      -7.909  -2.102 -30.766  1.00  0.00     0.129 A 
ATOM      4  C   UNL     1      -7.154  -2.496 -29.640  1.00  0.00     0.016 A 
ATOM      5  C   UNL     1      -7.578  -3.607 -28.895  1.00  0.00     0.016 A 
ATOM      6  C   UNL     1      -8.709  -4.330 -29.277  1.00  0.00     0.047 A 
ENDROOT
BRANCH   1   7
ATOM      7  O   UNL     1     -10.526  -4.749 -30.660  1.00  0.00    -0.497 OA
ATOM      8  C   UNL     1     -10.907  -5.679 -29.654  1.00  0.00     0.278 C 
ENDBRANCH   1   7
BRANCH   3   9
ATOM      9  O   UNL     1      -7.457  -0.991 -31.439  1.00  0.00    -0.496 OA
ATOM     10  C   UNL     1      -8.417  -0.163 -32.081  1.00  0.00     0.278 C 
ENDBRANCH   3   9
BRANCH   4  11
ATOM     11  C   UNL     1      -5.975  -1.719 -29.210  1.00  0.00     0.007 C 
ATOM     12  C   UNL     1      -5.168  -2.055 -28.190  1.00  0.00    -0.030 C 
ATOM     13  C   UNL     1      -3.971  -1.258 -27.787  1.00  0.00     0.035 C 
ENDBRANCH   4  11
TORSDOF 3
ENDMDL
MODEL 8
REMARK VINA RESULT:      -5.2      2.011      3.434
REMARK SMILES CC=Cc1ccc(OC)cc1OC
REMARK SMILES IDX 7 1 10 2 11 3 4 4 5 5 6 6 8 7 9 8 12 9 13 10 3 11 2 12 1 13
REMARK H PARENT
ROOT
ATOM      1  C   UNL     1      -4.927  -1.464 -29.950  1.00  0.00     0.122 A 
ATOM      2  C   UNL     1      -6.121  -2.158 -29.737  1.00  0.00     0.093 A 
ATOM      3  C   UNL     1      -7.312  -1.740 -30.354  1.00  0.00     0.129 A 
ATOM      4  C   UNL     1      -7.303  -0.615 -31.209  1.00  0.00     0.016 A 
ATOM      5  C   UNL     1      -6.102   0.083 -31.397  1.00  0.00     0.016 A 
ATOM      6  C   UNL     1      -4.926  -0.342 -30.777  1.00  0.00     0.047 A 
ENDROOT
BRANCH   1   7
ATOM      7  O   UNL     1      -3.710  -1.769 -29.407  1.00  0.00    -0.497 OA
ATOM      8  C   UNL     1      -3.036  -0.736 -28.699  1.00  0.00     0.278 C 
ENDBRANCH   1   7
BRANCH   3   9
ATOM      9  O   UNL     1      -8.525  -2.366 -30.190  1.00  0.00    -0.496 OA
ATOM     10  C   UNL     1      -8.636  -3.722 -30.597  1.00  0.00     0.278 C 
ENDBRANCH   3   9
BRANCH   4  11
ATOM     11  C   UNL     1      -8.548  -0.139 -31.844  1.00  0.00     0.007 C 
ATOM     12  C   UNL     1      -8.882  -0.354 -33.127  1.00  0.00    -0.030 C 
ATOM     13  C   UNL     1     -10.156   0.125 -33.740  1.00  0.00     0.035 C 
ENDBRANCH   4  11
TORSDOF 3
ENDMDL
MODEL 9
REMARK VINA RESULT:      -5.2     15.820     19.147
REMARK SMILES CC=Cc1ccc(OC)cc1OC
REMARK SMILES IDX 7 1 10 2 11 3 4 4 5 5 6 6 8 7 9 8 12 9 13 10 3 11 2 12 1 13
REMARK H PARENT
ROOT
ATOM      1  C   UNL     1       9.982   0.909 -15.442  1.00  0.00     0.122 A 
ATOM      2  C   UNL     1       8.873   1.696 -15.765  1.00  0.00     0.093 A 
ATOM      3  C   UNL     1       7.905   1.231 -16.670  1.00  0.00     0.129 A 
ATOM      4  C   UNL     1       8.043  -0.049 -17.251  1.00  0.00     0.016 A 
ATOM      5  C   UNL     1       9.171  -0.820 -16.932  1.00  0.00     0.016 A 
ATOM      6  C   UNL     1      10.126  -0.344 -16.033  1.00  0.00     0.047 A 
ENDROOT
BRANCH   1   7
ATOM      7  O   UNL     1      10.989   1.250 -14.582  1.00  0.00    -0.497 OA
ATOM      8  C   UNL     1      12.220   0.551 -14.713  1.00  0.00     0.278 C 
ENDBRANCH   1   7
BRANCH   3   9
ATOM      9  O   UNL     1       6.791   1.947 -17.041  1.00  0.00    -0.496 OA
ATOM     10  C   UNL     1       6.665   3.279 -16.564  1.00  0.00     0.278 C 
ENDBRANCH   3   9
BRANCH   4  11
ATOM     11  C   UNL     1       7.054  -0.547 -18.227  1.00  0.00     0.007 C 
ATOM     12  C   UNL     1       7.347  -1.322 -19.285  1.00  0.00    -0.030 C 
ATOM     13  C   UNL     1       6.322  -1.825 -20.248  1.00  0.00     0.035 C 
ENDBRANCH   4  11
TORSDOF 3
ENDMDL
MODEL 10
REMARK VINA RESULT:      -5.2      1.907      3.684
REMARK SMILES CC=Cc1ccc(OC)cc1OC
REMARK SMILES IDX 7 1 10 2 11 3 4 4 5 5 6 6 8 7 9 8 12 9 13 10 3 11 2 12 1 13
REMARK H PARENT
ROOT
ATOM      1  C   UNL     1      -4.021   1.828 -29.326  1.00  0.00     0.122 A 
ATOM      2  C   UNL     1      -4.330   0.506 -29.658  1.00  0.00     0.093 A 
ATOM      3  C   UNL     1      -5.447   0.211 -30.456  1.00  0.00     0.129 A 
ATOM      4  C   UNL     1      -6.261   1.259 -30.941  1.00  0.00     0.016 A 
ATOM      5  C   UNL     1      -5.949   2.579 -30.584  1.00  0.00     0.016 A 
ATOM      6  C   UNL     1      -4.837   2.858 -29.788  1.00  0.00     0.047 A 
ENDROOT
BRANCH   1   7
ATOM      7  O   UNL     1      -2.968   2.241 -28.558  1.00  0.00    -0.497 OA
ATOM      8  C   UNL     1      -2.222   1.237 -27.881  1.00  0.00     0.278 C 
ENDBRANCH   1   7
BRANCH   3   9
ATOM      9  O   UNL     1      -5.819  -1.062 -30.820  1.00  0.00    -0.496 OA
ATOM     10  C   UNL     1      -6.057  -2.007 -29.787  1.00  0.00     0.278 C 
ENDBRANCH   3   9
BRANCH   4  11
ATOM     11  C   UNL     1      -7.457   0.972 -31.757  1.00  0.00     0.007 C 
ATOM     12  C   UNL     1      -7.484   0.969 -33.100  1.00  0.00    -0.030 C 
ATOM     13  C   UNL     1      -8.706   0.658 -33.900  1.00  0.00     0.035 C 
ENDBRANCH   4  11
TORSDOF 3
ENDMDL
