MODEL 1
REMARK VINA RESULT:      -6.3      0.000      0.000
REMARK SMILES O=C(O)/C=C/c1ccccc1O
REMARK SMILES IDX 5 1 4 2 6 3 9 4 10 5 8 6 11 7 7 8 12 9 2 11 1 12 3 13
REMARK H PARENT 12 10 3 14
ROOT
ATOM      1  C   UNL     1       6.176  -2.150 -19.846  1.00  0.00     0.019 C 
ATOM      2  C   UNL     1       6.007  -1.599 -21.057  1.00  0.00     0.094 C 
ENDROOT
BRANCH   1   3
ATOM      3  C   UNL     1       6.860  -1.481 -18.729  1.00  0.00     0.017 A 
ATOM      4  C   UNL     1       8.225  -0.070 -16.710  1.00  0.00     0.004 A 
ATOM      5  C   UNL     1       7.191  -0.942 -16.374  1.00  0.00     0.047 A 
ATOM      6  C   UNL     1       8.574   0.111 -18.047  1.00  0.00     0.001 A 
ATOM      7  C   UNL     1       6.510  -1.637 -17.377  1.00  0.00     0.122 A 
ATOM      8  C   UNL     1       7.893  -0.586 -19.048  1.00  0.00     0.012 A 
BRANCH   7   9
ATOM      9  O   UNL     1       5.480  -2.470 -17.027  1.00  0.00    -0.507 OA
ATOM     10  H   UNL     1       5.759  -3.000 -16.263  1.00  0.00     0.293 HD
ENDBRANCH   7   9
ENDBRANCH   1   3
BRANCH   2  11
ATOM     11  C   UNL     1       5.292  -2.351 -22.105  1.00  0.00     0.328 C 
ATOM     12  O   UNL     1       4.684  -3.391 -21.924  1.00  0.00    -0.247 OA
BRANCH  11  13
ATOM     13  O   UNL     1       5.391  -1.747 -23.307  1.00  0.00    -0.478 OA
ATOM     14  H   UNL     1       5.278  -2.344 -24.070  1.00  0.00     0.297 HD
ENDBRANCH  11  13
ENDBRANCH   2  11
TORSDOF 4
ENDMDL
MODEL 2
REMARK VINA RESULT:      -6.2      5.428      7.172
REMARK SMILES O=C(O)/C=C/c1ccccc1O
REMARK SMILES IDX 5 1 4 2 6 3 9 4 10 5 8 6 11 7 7 8 12 9 2 11 1 12 3 13
REMARK H PARENT 12 10 3 14
ROOT
ATOM      1  C   UNL     1       4.890  -0.111 -26.224  1.00  0.00     0.019 C 
ATOM      2  C   UNL     1       6.127   0.116 -26.689  1.00  0.00     0.094 C 
ENDROOT
BRANCH   1   3
ATOM      3  C   UNL     1       4.599  -0.917 -25.028  1.00  0.00     0.017 A 
ATOM      4  C   UNL     1       4.202  -2.397 -22.666  1.00  0.00     0.004 A 
ATOM      5  C   UNL     1       3.112  -2.054 -23.464  1.00  0.00     0.047 A 
ATOM      6  C   UNL     1       5.485  -1.996 -23.031  1.00  0.00     0.001 A 
ATOM      7  C   UNL     1       3.310  -1.314 -24.633  1.00  0.00     0.122 A 
ATOM      8  C   UNL     1       5.680  -1.258 -24.201  1.00  0.00     0.012 A 
BRANCH   7   9
ATOM      9  O   UNL     1       2.223  -0.965 -25.392  1.00  0.00    -0.507 OA
ATOM     10  H   UNL     1       1.876  -1.765 -25.818  1.00  0.00     0.293 HD
ENDBRANCH   7   9
ENDBRANCH   1   3
BRANCH   2  11
ATOM     11  C   UNL     1       6.310   0.951 -27.890  1.00  0.00     0.328 C 
ATOM     12  O   UNL     1       5.818   0.721 -28.981  1.00  0.00    -0.247 OA
BRANCH  11  13
ATOM     13  O   UNL     1       7.098   2.016 -27.642  1.00  0.00    -0.478 OA
ATOM     14  H   UNL     1       7.918   2.045 -28.169  1.00  0.00     0.297 HD
ENDBRANCH  11  13
ENDBRANCH   2  11
TORSDOF 4
ENDMDL
MODEL 3
REMARK VINA RESULT:      -5.9      3.016      5.313
REMARK SMILES O=C(O)/C=C/c1ccccc1O
REMARK SMILES IDX 5 1 4 2 6 3 9 4 10 5 8 6 11 7 7 8 12 9 2 11 1 12 3 13
REMARK H PARENT 12 10 3 14
ROOT
ATOM      1  C   UNL     1       7.479   0.240 -17.147  1.00  0.00     0.019 C 
ATOM      2  C   UNL     1       8.722   0.353 -16.657  1.00  0.00     0.094 C 
ENDROOT
BRANCH   1   3
ATOM      3  C   UNL     1       6.999  -0.925 -17.907  1.00  0.00     0.017 A 
ATOM      4  C   UNL     1       6.218  -3.123 -19.483  1.00  0.00     0.004 A 
ATOM      5  C   UNL     1       5.862  -3.070 -18.136  1.00  0.00     0.047 A 
ATOM      6  C   UNL     1       6.970  -2.094 -20.044  1.00  0.00     0.001 A 
ATOM      7  C   UNL     1       6.256  -1.981 -17.354  1.00  0.00     0.122 A 
ATOM      8  C   UNL     1       7.361  -1.006 -19.260  1.00  0.00     0.012 A 
BRANCH   7   9
ATOM      9  O   UNL     1       5.918  -1.959 -16.026  1.00  0.00    -0.507 OA
ATOM     10  H   UNL     1       4.981  -2.201 -15.943  1.00  0.00     0.293 HD
ENDBRANCH   7   9
ENDBRANCH   1   3
BRANCH   2  11
ATOM     11  C   UNL     1       9.097   1.558 -15.896  1.00  0.00     0.328 C 
ATOM     12  O   UNL     1      10.184   1.745 -15.377  1.00  0.00    -0.247 OA
BRANCH  11  13
ATOM     13  O   UNL     1       8.084   2.446 -15.836  1.00  0.00    -0.478 OA
ATOM     14  H   UNL     1       8.208   3.158 -15.182  1.00  0.00     0.297 HD
ENDBRANCH  11  13
ENDBRANCH   2  11
TORSDOF 4
ENDMDL
MODEL 4
REMARK VINA RESULT:      -5.9     13.455     15.206
REMARK SMILES O=C(O)/C=C/c1ccccc1O
REMARK SMILES IDX 5 1 4 2 6 3 9 4 10 5 8 6 11 7 7 8 12 9 2 11 1 12 3 13
REMARK H PARENT 12 10 3 14
ROOT
ATOM      1  C   UNL     1      -3.426 -10.596 -27.464  1.00  0.00     0.019 C 
ATOM      2  C   UNL     1      -4.387 -10.236 -26.600  1.00  0.00     0.094 C 
ENDROOT
BRANCH   1   3
ATOM      3  C   UNL     1      -2.023 -10.167 -27.357  1.00  0.00     0.017 A 
ATOM      4  C   UNL     1       0.603  -9.195 -27.060  1.00  0.00     0.004 A 
ATOM      5  C   UNL     1       0.383 -10.555 -27.270  1.00  0.00     0.047 A 
ATOM      6  C   UNL     1      -0.478  -8.320 -26.985  1.00  0.00     0.001 A 
ATOM      7  C   UNL     1      -0.921 -11.037 -27.411  1.00  0.00     0.122 A 
ATOM      8  C   UNL     1      -1.781  -8.804 -27.128  1.00  0.00     0.012 A 
BRANCH   7   9
ATOM      9  O   UNL     1      -1.118 -12.382 -27.591  1.00  0.00    -0.507 OA
ATOM     10  H   UNL     1      -1.881 -12.505 -28.178  1.00  0.00     0.293 HD
ENDBRANCH   7   9
ENDBRANCH   1   3
BRANCH   2  11
ATOM     11  C   UNL     1      -5.761 -10.735 -26.791  1.00  0.00     0.328 C 
ATOM     12  O   UNL     1      -6.185 -11.793 -26.360  1.00  0.00    -0.247 OA
BRANCH  11  13
ATOM     13  O   UNL     1      -6.508  -9.873 -27.510  1.00  0.00    -0.478 OA
ATOM     14  H   UNL     1      -6.209  -9.747 -28.429  1.00  0.00     0.297 HD
ENDBRANCH  11  13
ENDBRANCH   2  11
TORSDOF 4
ENDMDL
MODEL 5
REMARK VINA RESULT:      -5.8     12.950     14.093
REMARK SMILES O=C(O)/C=C/c1ccccc1O
REMARK SMILES IDX 5 1 4 2 6 3 9 4 10 5 8 6 11 7 7 8 12 9 2 11 1 12 3 13
REMARK H PARENT 12 10 3 14
ROOT
ATOM      1  C   UNL     1      -4.085  -0.234 -26.639  1.00  0.00     0.019 C 
ATOM      2  C   UNL     1      -5.099  -0.979 -26.177  1.00  0.00     0.094 C 
ENDROOT
BRANCH   1   3
ATOM      3  C   UNL     1      -3.550  -0.332 -28.006  1.00  0.00     0.017 A 
ATOM      4  C   UNL     1      -2.701  -0.556 -30.681  1.00  0.00     0.004 A 
ATOM      5  C   UNL     1      -1.939   0.167 -29.767  1.00  0.00     0.047 A 
ATOM      6  C   UNL     1      -3.889  -1.158 -30.273  1.00  0.00     0.001 A 
ATOM      7  C   UNL     1      -2.365   0.283 -28.441  1.00  0.00     0.122 A 
ATOM      8  C   UNL     1      -4.312  -1.042 -28.947  1.00  0.00     0.012 A 
BRANCH   7   9
ATOM      9  O   UNL     1      -1.613   1.020 -27.563  1.00  0.00    -0.507 OA
ATOM     10  H   UNL     1      -0.675   0.822 -27.719  1.00  0.00     0.293 HD
ENDBRANCH   7   9
ENDBRANCH   1   3
BRANCH   2  11
ATOM     11  C   UNL     1      -5.568  -0.791 -24.792  1.00  0.00     0.328 C 
ATOM     12  O   UNL     1      -6.274  -1.575 -24.182  1.00  0.00    -0.247 OA
BRANCH  11  13
ATOM     13  O   UNL     1      -5.121   0.368 -24.267  1.00  0.00    -0.478 OA
ATOM     14  H   UNL     1      -5.081   0.382 -23.293  1.00  0.00     0.297 HD
ENDBRANCH  11  13
ENDBRANCH   2  11
TORSDOF 4
ENDMDL
MODEL 6
REMARK VINA RESULT:      -5.8     12.879     14.337
REMARK SMILES O=C(O)/C=C/c1ccccc1O
REMARK SMILES IDX 5 1 4 2 6 3 9 4 10 5 8 6 11 7 7 8 12 9 2 11 1 12 3 13
REMARK H PARENT 12 10 3 14
ROOT
ATOM      1  C   UNL     1      -1.210 -10.355 -27.344  1.00  0.00     0.019 C 
ATOM      2  C   UNL     1      -2.501 -10.148 -27.045  1.00  0.00     0.094 C 
ENDROOT
BRANCH   1   3
ATOM      3  C   UNL     1      -0.253 -11.010 -26.439  1.00  0.00     0.017 A 
ATOM      4  C   UNL     1       1.557 -12.120 -24.589  1.00  0.00     0.004 A 
ATOM      5  C   UNL     1       0.911 -12.942 -25.511  1.00  0.00     0.047 A 
ATOM      6  C   UNL     1       1.297 -10.752 -24.576  1.00  0.00     0.001 A 
ATOM      7  C   UNL     1       0.008 -12.390 -26.424  1.00  0.00     0.122 A 
ATOM      8  C   UNL     1       0.395 -10.203 -25.491  1.00  0.00     0.012 A 
BRANCH   7   9
ATOM      9  O   UNL     1      -0.636 -13.219 -27.306  1.00  0.00    -0.507 OA
ATOM     10  H   UNL     1      -0.167 -14.070 -27.327  1.00  0.00     0.293 HD
ENDBRANCH   7   9
ENDBRANCH   1   3
BRANCH   2  11
ATOM     11  C   UNL     1      -3.380  -9.494 -28.031  1.00  0.00     0.328 C 
ATOM     12  O   UNL     1      -3.025  -8.638 -28.822  1.00  0.00    -0.247 OA
BRANCH  11  13
ATOM     13  O   UNL     1      -4.644  -9.958 -27.957  1.00  0.00    -0.478 OA
ATOM     14  H   UNL     1      -4.969 -10.380 -28.774  1.00  0.00     0.297 HD
ENDBRANCH  11  13
ENDBRANCH   2  11
TORSDOF 4
ENDMDL
MODEL 7
REMARK VINA RESULT:      -5.7     13.516     14.736
REMARK SMILES O=C(O)/C=C/c1ccccc1O
REMARK SMILES IDX 5 1 4 2 6 3 9 4 10 5 8 6 11 7 7 8 12 9 2 11 1 12 3 13
REMARK H PARENT 12 10 3 14
ROOT
ATOM      1  C   UNL     1      -0.110 -10.990 -26.568  1.00  0.00     0.019 C 
ATOM      2  C   UNL     1      -0.168 -12.258 -26.137  1.00  0.00     0.094 C 
ENDROOT
BRANCH   1   3
ATOM      3  C   UNL     1      -1.264 -10.254 -27.110  1.00  0.00     0.017 A 
ATOM      4  C   UNL     1      -3.582  -8.973 -28.066  1.00  0.00     0.004 A 
ATOM      5  C   UNL     1      -2.392  -8.258 -27.940  1.00  0.00     0.047 A 
ATOM      6  C   UNL     1      -3.625 -10.318 -27.706  1.00  0.00     0.001 A 
ATOM      7  C   UNL     1      -1.244  -8.894 -27.460  1.00  0.00     0.122 A 
ATOM      8  C   UNL     1      -2.476 -10.951 -27.228  1.00  0.00     0.012 A 
BRANCH   7   9
ATOM      9  O   UNL     1      -0.090  -8.167 -27.320  1.00  0.00    -0.507 OA
ATOM     10  H   UNL     1       0.011  -7.928 -26.384  1.00  0.00     0.293 HD
ENDBRANCH   7   9
ENDBRANCH   1   3
BRANCH   2  11
ATOM     11  C   UNL     1       1.045 -12.899 -25.598  1.00  0.00     0.328 C 
ATOM     12  O   UNL     1       1.796 -13.618 -26.234  1.00  0.00    -0.247 OA
BRANCH  11  13
ATOM     13  O   UNL     1       1.234 -12.595 -24.298  1.00  0.00    -0.478 OA
ATOM     14  H   UNL     1       2.015 -12.040 -24.121  1.00  0.00     0.297 HD
ENDBRANCH  11  13
ENDBRANCH   2  11
TORSDOF 4
ENDMDL
MODEL 8
REMARK VINA RESULT:      -5.7     16.584     19.123
REMARK SMILES O=C(O)/C=C/c1ccccc1O
REMARK SMILES IDX 5 1 4 2 6 3 9 4 10 5 8 6 11 7 7 8 12 9 2 11 1 12 3 13
REMARK H PARENT 12 10 3 14
ROOT
ATOM      1  C   UNL     1      -8.481   0.935 -31.765  1.00  0.00     0.019 C 
ATOM      2  C   UNL     1      -8.926   0.847 -33.027  1.00  0.00     0.094 C 
ENDROOT
BRANCH   1   3
ATOM      3  C   UNL     1      -7.056   0.962 -31.398  1.00  0.00     0.017 A 
ATOM      4  C   UNL     1      -4.356   1.187 -30.632  1.00  0.00     0.004 A 
ATOM      5  C   UNL     1      -4.939  -0.072 -30.767  1.00  0.00     0.047 A 
ATOM      6  C   UNL     1      -5.113   2.332 -30.865  1.00  0.00     0.001 A 
ATOM      7  C   UNL     1      -6.281  -0.182 -31.141  1.00  0.00     0.122 A 
ATOM      8  C   UNL     1      -6.454   2.220 -31.240  1.00  0.00     0.012 A 
BRANCH   7   9
ATOM      9  O   UNL     1      -6.843  -1.428 -31.243  1.00  0.00    -0.507 OA
ATOM     10  H   UNL     1      -7.446  -1.556 -30.492  1.00  0.00     0.293 HD
ENDBRANCH   7   9
ENDBRANCH   1   3
BRANCH   2  11
ATOM     11  C   UNL     1     -10.377   0.843 -33.287  1.00  0.00     0.328 C 
ATOM     12  O   UNL     1     -11.012  -0.120 -33.681  1.00  0.00    -0.247 OA
BRANCH  11  13
ATOM     13  O   UNL     1     -10.933   2.045 -33.036  1.00  0.00    -0.478 OA
ATOM     14  H   UNL     1     -11.897   2.024 -32.893  1.00  0.00     0.297 HD
ENDBRANCH  11  13
ENDBRANCH   2  11
TORSDOF 4
ENDMDL
MODEL 9
REMARK VINA RESULT:      -5.6     16.550     19.189
REMARK SMILES O=C(O)/C=C/c1ccccc1O
REMARK SMILES IDX 5 1 4 2 6 3 9 4 10 5 8 6 11 7 7 8 12 9 2 11 1 12 3 13
REMARK H PARENT 12 10 3 14
ROOT
ATOM      1  C   UNL     1      -8.522  -0.550 -32.257  1.00  0.00     0.019 C 
ATOM      2  C   UNL     1      -9.466   0.362 -31.986  1.00  0.00     0.094 C 
ENDROOT
BRANCH   1   3
ATOM      3  C   UNL     1      -7.459  -0.935 -31.315  1.00  0.00     0.017 A 
ATOM      4  C   UNL     1      -5.497  -1.843 -29.511  1.00  0.00     0.004 A 
ATOM      5  C   UNL     1      -5.250  -0.725 -30.304  1.00  0.00     0.047 A 
ATOM      6  C   UNL     1      -6.711  -2.518 -29.620  1.00  0.00     0.001 A 
ATOM      7  C   UNL     1      -6.222  -0.279 -31.204  1.00  0.00     0.122 A 
ATOM      8  C   UNL     1      -7.681  -2.069 -30.519  1.00  0.00     0.012 A 
BRANCH   7   9
ATOM      9  O   UNL     1      -5.949   0.808 -31.993  1.00  0.00    -0.507 OA
ATOM     10  H   UNL     1      -5.004   0.794 -32.219  1.00  0.00     0.293 HD
ENDBRANCH   7   9
ENDBRANCH   1   3
BRANCH   2  11
ATOM     11  C   UNL     1     -10.496   0.665 -32.996  1.00  0.00     0.328 C 
ATOM     12  O   UNL     1     -10.942  -0.137 -33.799  1.00  0.00    -0.247 OA
BRANCH  11  13
ATOM     13  O   UNL     1     -10.896   1.951 -32.932  1.00  0.00    -0.478 OA
ATOM     14  H   UNL     1     -10.761   2.374 -32.064  1.00  0.00     0.297 HD
ENDBRANCH  11  13
ENDBRANCH   2  11
TORSDOF 4
ENDMDL
MODEL 10
REMARK VINA RESULT:      -5.6     11.787     13.918
REMARK SMILES O=C(O)/C=C/c1ccccc1O
REMARK SMILES IDX 5 1 4 2 6 3 9 4 10 5 8 6 11 7 7 8 12 9 2 11 1 12 3 13
REMARK H PARENT 12 10 3 14
ROOT
ATOM      1  C   UNL     1       0.612 -10.214 -25.544  1.00  0.00     0.019 C 
ATOM      2  C   UNL     1       0.718 -11.191 -24.631  1.00  0.00     0.094 C 
ENDROOT
BRANCH   1   3
ATOM      3  C   UNL     1      -0.567 -10.020 -26.404  1.00  0.00     0.017 A 
ATOM      4  C   UNL     1      -2.792  -9.466 -28.037  1.00  0.00     0.004 A 
ATOM      5  C   UNL     1      -2.176 -10.714 -28.099  1.00  0.00     0.047 A 
ATOM      6  C   UNL     1      -2.298  -8.489 -27.175  1.00  0.00     0.001 A 
ATOM      7  C   UNL     1      -1.068 -10.986 -27.293  1.00  0.00     0.122 A 
ATOM      8  C   UNL     1      -1.191  -8.764 -26.369  1.00  0.00     0.012 A 
BRANCH   7   9
ATOM      9  O   UNL     1      -0.461 -12.211 -27.387  1.00  0.00    -0.507 OA
ATOM     10  H   UNL     1      -1.061 -12.881 -27.019  1.00  0.00     0.293 HD
ENDBRANCH   7   9
ENDBRANCH   1   3
BRANCH   2  11
ATOM     11  C   UNL     1       1.939 -11.288 -23.810  1.00  0.00     0.328 C 
ATOM     12  O   UNL     1       2.191 -12.199 -23.042  1.00  0.00    -0.247 OA
BRANCH  11  13
ATOM     13  O   UNL     1       2.758 -10.236 -24.008  1.00  0.00    -0.478 OA
ATOM     14  H   UNL     1       2.906 -10.008 -24.944  1.00  0.00     0.297 HD
ENDBRANCH  11  13
ENDBRANCH   2  11
TORSDOF 4
ENDMDL
