MODEL 1
REMARK VINA RESULT:      -6.0      0.000      0.000
REMARK SMILES O=C(O)c1ccccc1
REMARK SMILES IDX 2 1 1 2 4 3 7 4 6 5 8 6 5 7 9 8 3 9
REMARK H PARENT 3 10
ROOT
ATOM      1  C   UNL     1       4.059  -0.908 -25.345  1.00  0.00     0.335 C 
ATOM      2  O   UNL     1       4.296  -1.956 -24.772  1.00  0.00    -0.246 OA
ENDROOT
BRANCH   1   3
ATOM      3  C   UNL     1       5.010  -0.258 -26.275  1.00  0.00     0.059 A 
ATOM      4  C   UNL     1       6.836   0.993 -27.971  1.00  0.00     0.000 A 
ATOM      5  C   UNL     1       5.889   0.112 -28.497  1.00  0.00     0.001 A 
ATOM      6  C   UNL     1       6.881   1.237 -26.598  1.00  0.00     0.001 A 
ATOM      7  C   UNL     1       4.976  -0.519 -27.650  1.00  0.00     0.015 A 
ATOM      8  C   UNL     1       5.972   0.608 -25.746  1.00  0.00     0.015 A 
ENDBRANCH   1   3
BRANCH   1   9
ATOM      9  O   UNL     1       2.931  -0.190 -25.160  1.00  0.00    -0.478 OA
ATOM     10  H   UNL     1       2.302  -0.230 -25.905  1.00  0.00     0.297 HD
ENDBRANCH   1   9
TORSDOF 2
ENDMDL
MODEL 2
REMARK VINA RESULT:      -5.9      7.420      8.710
REMARK SMILES O=C(O)c1ccccc1
REMARK SMILES IDX 2 1 1 2 4 3 7 4 6 5 8 6 5 7 9 8 3 9
REMARK H PARENT 3 10
ROOT
ATOM      1  C   UNL     1       6.459  -2.241 -19.997  1.00  0.00     0.335 C 
ATOM      2  O   UNL     1       5.939  -1.741 -20.979  1.00  0.00    -0.246 OA
ENDROOT
BRANCH   1   3
ATOM      3  C   UNL     1       6.913  -1.453 -18.829  1.00  0.00     0.059 A 
ATOM      4  C   UNL     1       7.725  -0.006 -16.589  1.00  0.00     0.000 A 
ATOM      5  C   UNL     1       8.398   0.154 -17.801  1.00  0.00     0.001 A 
ATOM      6  C   UNL     1       6.658  -0.899 -16.491  1.00  0.00     0.001 A 
ATOM      7  C   UNL     1       7.998  -0.572 -18.924  1.00  0.00     0.015 A 
ATOM      8  C   UNL     1       6.252  -1.628 -17.609  1.00  0.00     0.015 A 
ENDBRANCH   1   3
BRANCH   1   9
ATOM      9  O   UNL     1       6.731  -3.558 -19.881  1.00  0.00    -0.478 OA
ATOM     10  H   UNL     1       6.755  -3.884 -18.962  1.00  0.00     0.297 HD
ENDBRANCH   1   9
TORSDOF 2
ENDMDL
MODEL 3
REMARK VINA RESULT:      -5.8     11.246     12.230
REMARK SMILES O=C(O)c1ccccc1
REMARK SMILES IDX 2 1 1 2 4 3 7 4 6 5 8 6 5 7 9 8 3 9
REMARK H PARENT 3 10
ROOT
ATOM      1  C   UNL     1       0.559 -11.643 -25.807  1.00  0.00     0.335 C 
ATOM      2  O   UNL     1       0.811 -12.779 -26.168  1.00  0.00    -0.246 OA
ENDROOT
BRANCH   1   3
ATOM      3  C   UNL     1      -0.439 -10.781 -26.480  1.00  0.00     0.059 A 
ATOM      4  C   UNL     1      -2.295  -9.102 -27.709  1.00  0.00     0.000 A 
ATOM      5  C   UNL     1      -2.114 -10.403 -28.182  1.00  0.00     0.001 A 
ATOM      6  C   UNL     1      -1.540  -8.635 -26.633  1.00  0.00     0.001 A 
ATOM      7  C   UNL     1      -1.182 -11.245 -27.573  1.00  0.00     0.015 A 
ATOM      8  C   UNL     1      -0.607  -9.471 -26.019  1.00  0.00     0.015 A 
ENDBRANCH   1   3
BRANCH   1   9
ATOM      9  O   UNL     1       1.195 -11.020 -24.793  1.00  0.00    -0.478 OA
ATOM     10  H   UNL     1       1.077 -11.444 -23.923  1.00  0.00     0.297 HD
ENDBRANCH   1   9
TORSDOF 2
ENDMDL
MODEL 4
REMARK VINA RESULT:      -5.8     11.275     12.312
REMARK SMILES O=C(O)c1ccccc1
REMARK SMILES IDX 2 1 1 2 4 3 7 4 6 5 8 6 5 7 9 8 3 9
REMARK H PARENT 3 10
ROOT
ATOM      1  C   UNL     1       0.529 -11.560 -25.851  1.00  0.00     0.335 C 
ATOM      2  O   UNL     1       0.791 -12.680 -26.253  1.00  0.00    -0.246 OA
ENDROOT
BRANCH   1   3
ATOM      3  C   UNL     1      -0.478 -10.683 -26.490  1.00  0.00     0.059 A 
ATOM      4  C   UNL     1      -2.395  -9.084 -27.733  1.00  0.00     0.000 A 
ATOM      5  C   UNL     1      -1.673  -8.587 -26.646  1.00  0.00     0.001 A 
ATOM      6  C   UNL     1      -2.171 -10.383 -28.188  1.00  0.00     0.001 A 
ATOM      7  C   UNL     1      -0.716  -9.386 -26.018  1.00  0.00     0.015 A 
ATOM      8  C   UNL     1      -1.216 -11.188 -27.565  1.00  0.00     0.015 A 
ENDBRANCH   1   3
BRANCH   1   9
ATOM      9  O   UNL     1       1.160 -10.969 -24.815  1.00  0.00    -0.478 OA
ATOM     10  H   UNL     1       0.702 -10.183 -24.460  1.00  0.00     0.297 HD
ENDBRANCH   1   9
TORSDOF 2
ENDMDL
MODEL 5
REMARK VINA RESULT:      -5.7     11.482     12.392
REMARK SMILES O=C(O)c1ccccc1
REMARK SMILES IDX 2 1 1 2 4 3 7 4 6 5 8 6 5 7 9 8 3 9
REMARK H PARENT 3 10
ROOT
ATOM      1  C   UNL     1      -2.892  -9.006 -27.702  1.00  0.00     0.335 C 
ATOM      2  O   UNL     1      -3.122  -8.851 -28.888  1.00  0.00    -0.246 OA
ENDROOT
BRANCH   1   3
ATOM      3  C   UNL     1      -1.780  -9.840 -27.192  1.00  0.00     0.059 A 
ATOM      4  C   UNL     1       0.301 -11.458 -26.283  1.00  0.00     0.000 A 
ATOM      5  C   UNL     1       0.126 -10.182 -25.744  1.00  0.00     0.001 A 
ATOM      6  C   UNL     1      -0.552 -11.919 -27.286  1.00  0.00     0.001 A 
ATOM      7  C   UNL     1      -0.912  -9.367 -26.200  1.00  0.00     0.015 A 
ATOM      8  C   UNL     1      -1.591 -11.110 -27.747  1.00  0.00     0.015 A 
ENDBRANCH   1   3
BRANCH   1   9
ATOM      9  O   UNL     1      -3.653  -8.485 -26.716  1.00  0.00    -0.478 OA
ATOM     10  H   UNL     1      -4.043  -7.616 -26.926  1.00  0.00     0.297 HD
ENDBRANCH   1   9
TORSDOF 2
ENDMDL
MODEL 6
REMARK VINA RESULT:      -5.7      2.219      3.905
REMARK SMILES O=C(O)c1ccccc1
REMARK SMILES IDX 2 1 1 2 4 3 7 4 6 5 8 6 5 7 9 8 3 9
REMARK H PARENT 3 10
ROOT
ATOM      1  C   UNL     1       5.532   0.108 -26.591  1.00  0.00     0.335 C 
ATOM      2  O   UNL     1       5.425  -0.157 -27.775  1.00  0.00    -0.246 OA
ENDROOT
BRANCH   1   3
ATOM      3  C   UNL     1       4.798  -0.614 -25.528  1.00  0.00     0.059 A 
ATOM      4  C   UNL     1       3.475  -1.984 -23.491  1.00  0.00     0.000 A 
ATOM      5  C   UNL     1       2.739  -1.328 -24.480  1.00  0.00     0.001 A 
ATOM      6  C   UNL     1       4.870  -1.942 -23.510  1.00  0.00     0.001 A 
ATOM      7  C   UNL     1       3.398  -0.638 -25.498  1.00  0.00     0.015 A 
ATOM      8  C   UNL     1       5.534  -1.253 -24.525  1.00  0.00     0.015 A 
ENDBRANCH   1   3
BRANCH   1   9
ATOM      9  O   UNL     1       6.285   1.122 -26.115  1.00  0.00    -0.478 OA
ATOM     10  H   UNL     1       5.842   1.991 -26.125  1.00  0.00     0.297 HD
ENDBRANCH   1   9
TORSDOF 2
ENDMDL
MODEL 7
REMARK VINA RESULT:      -5.5      2.950      4.725
REMARK SMILES O=C(O)c1ccccc1
REMARK SMILES IDX 2 1 1 2 4 3 7 4 6 5 8 6 5 7 9 8 3 9
REMARK H PARENT 3 10
ROOT
ATOM      1  C   UNL     1       3.771  -1.204 -25.246  1.00  0.00     0.335 C 
ATOM      2  O   UNL     1       4.039  -1.637 -26.353  1.00  0.00    -0.246 OA
ENDROOT
BRANCH   1   3
ATOM      3  C   UNL     1       4.322  -1.773 -23.996  1.00  0.00     0.059 A 
ATOM      4  C   UNL     1       5.314  -2.899 -21.645  1.00  0.00     0.000 A 
ATOM      5  C   UNL     1       5.976  -1.818 -22.232  1.00  0.00     0.001 A 
ATOM      6  C   UNL     1       4.168  -3.427 -22.239  1.00  0.00     0.001 A 
ATOM      7  C   UNL     1       5.485  -1.256 -23.411  1.00  0.00     0.015 A 
ATOM      8  C   UNL     1       3.672  -2.869 -23.419  1.00  0.00     0.015 A 
ENDBRANCH   1   3
BRANCH   1   9
ATOM      9  O   UNL     1       2.901  -0.196 -25.026  1.00  0.00    -0.478 OA
ATOM     10  H   UNL     1       2.224  -0.389 -24.350  1.00  0.00     0.297 HD
ENDBRANCH   1   9
TORSDOF 2
ENDMDL
MODEL 8
REMARK VINA RESULT:      -5.5     11.665     12.406
REMARK SMILES O=C(O)c1ccccc1
REMARK SMILES IDX 2 1 1 2 4 3 7 4 6 5 8 6 5 7 9 8 3 9
REMARK H PARENT 3 10
ROOT
ATOM      1  C   UNL     1      -3.147  -9.247 -27.745  1.00  0.00     0.335 C 
ATOM      2  O   UNL     1      -3.277  -8.856 -28.892  1.00  0.00    -0.246 OA
ENDROOT
BRANCH   1   3
ATOM      3  C   UNL     1      -1.939  -9.951 -27.259  1.00  0.00     0.059 A 
ATOM      4  C   UNL     1       0.344 -11.229 -26.295  1.00  0.00     0.000 A 
ATOM      5  C   UNL     1      -0.439 -11.848 -27.272  1.00  0.00     0.001 A 
ATOM      6  C   UNL     1      -0.021  -9.981 -25.789  1.00  0.00     0.001 A 
ATOM      7  C   UNL     1      -1.585 -11.213 -27.753  1.00  0.00     0.015 A 
ATOM      8  C   UNL     1      -1.166  -9.341 -26.266  1.00  0.00     0.015 A 
ENDBRANCH   1   3
BRANCH   1   9
ATOM      9  O   UNL     1      -4.105  -9.134 -26.801  1.00  0.00    -0.478 OA
ATOM     10  H   UNL     1      -4.309  -8.216 -26.543  1.00  0.00     0.297 HD
ENDBRANCH   1   9
TORSDOF 2
ENDMDL
MODEL 9
REMARK VINA RESULT:      -5.4      8.887      9.962
REMARK SMILES O=C(O)c1ccccc1
REMARK SMILES IDX 2 1 1 2 4 3 7 4 6 5 8 6 5 7 9 8 3 9
REMARK H PARENT 3 10
ROOT
ATOM      1  C   UNL     1       8.859   0.913 -16.422  1.00  0.00     0.335 C 
ATOM      2  O   UNL     1      10.045   0.738 -16.206  1.00  0.00    -0.246 OA
ENDROOT
BRANCH   1   3
ATOM      3  C   UNL     1       8.021  -0.045 -17.177  1.00  0.00     0.059 A 
ATOM      4  C   UNL     1       6.401  -1.857 -18.543  1.00  0.00     0.000 A 
ATOM      5  C   UNL     1       7.409  -1.174 -19.226  1.00  0.00     0.001 A 
ATOM      6  C   UNL     1       6.191  -1.624 -17.184  1.00  0.00     0.001 A 
ATOM      7  C   UNL     1       8.219  -0.263 -18.546  1.00  0.00     0.015 A 
ATOM      8  C   UNL     1       6.997  -0.714 -16.499  1.00  0.00     0.015 A 
ENDBRANCH   1   3
BRANCH   1   9
ATOM      9  O   UNL     1       8.185   2.022 -16.050  1.00  0.00    -0.478 OA
ATOM     10  H   UNL     1       8.391   2.335 -15.149  1.00  0.00     0.297 HD
ENDBRANCH   1   9
TORSDOF 2
ENDMDL
MODEL 10
REMARK VINA RESULT:      -5.3     11.153     12.453
REMARK SMILES O=C(O)c1ccccc1
REMARK SMILES IDX 2 1 1 2 4 3 7 4 6 5 8 6 5 7 9 8 3 9
REMARK H PARENT 3 10
ROOT
ATOM      1  C   UNL     1       0.008 -10.323 -27.122  1.00  0.00     0.335 C 
ATOM      2  O   UNL     1       0.370 -11.457 -26.860  1.00  0.00    -0.246 OA
ENDROOT
BRANCH   1   3
ATOM      3  C   UNL     1      -1.415  -9.923 -27.197  1.00  0.00     0.059 A 
ATOM      4  C   UNL     1      -4.113  -9.236 -27.352  1.00  0.00     0.000 A 
ATOM      5  C   UNL     1      -3.175  -8.283 -26.951  1.00  0.00     0.001 A 
ATOM      6  C   UNL     1      -3.708 -10.535 -27.659  1.00  0.00     0.001 A 
ATOM      7  C   UNL     1      -1.824  -8.625 -26.868  1.00  0.00     0.015 A 
ATOM      8  C   UNL     1      -2.358 -10.883 -27.578  1.00  0.00     0.015 A 
ENDBRANCH   1   3
BRANCH   1   9
ATOM      9  O   UNL     1       0.854  -9.317 -27.427  1.00  0.00    -0.478 OA
ATOM     10  H   UNL     1       1.777  -9.597 -27.569  1.00  0.00     0.297 HD
ENDBRANCH   1   9
TORSDOF 2
ENDMDL
