MODEL 1
REMARK VINA RESULT:      -8.3      0.000      0.000
REMARK SMILES O=C(/C=C/c1ccc(O)c(O)c1)O[C@@H]1C[C@](O)(C(=O)O)C[C@@H](O)[C@H]1O
REMARK SMILES IDX 2 1 1 2 13 3 14 4 21 5 22 6 16 7 24 8 15 9 23 10 17 12 18 14
REMARK SMILES IDX 19 15 20 16 25 18 3 20 4 21 5 22 12 23 6 24 10 25 7 26 8 27
REMARK SMILES IDX 11 28 9 30
REMARK H PARENT 23 11 17 13 20 17 25 19 11 29 9 31
ROOT
ATOM      1  C   UNL     1      -4.939   2.919 -30.377  1.00  0.00     0.331 C 
ATOM      2  O   UNL     1      -4.703   4.078 -30.688  1.00  0.00    -0.247 OA
ENDROOT
BRANCH   1   3
ATOM      3  O   UNL     1      -4.074   2.070 -29.774  1.00  0.00    -0.456 OA
BRANCH   3   4
ATOM      4  C   UNL     1      -4.607   0.774 -29.429  1.00  0.00     0.211 C 
ATOM      5  C   UNL     1      -4.201  -1.826 -28.043  1.00  0.00     0.082 C 
ATOM      6  C   UNL     1      -4.082  -1.717 -29.562  1.00  0.00     0.150 C 
ATOM      7  C   UNL     1      -5.120  -0.743 -27.463  1.00  0.00     0.167 C 
ATOM      8  C   UNL     1      -3.680  -0.304 -30.019  1.00  0.00     0.184 C 
ATOM      9  C   UNL     1      -4.680   0.653 -27.903  1.00  0.00     0.095 C 
BRANCH   6  10
ATOM     10  O   UNL     1      -5.320  -2.070 -30.200  1.00  0.00    -0.390 OA
ATOM     11  H   UNL     1      -5.474  -3.028 -30.067  1.00  0.00     0.211 HD
ENDBRANCH   6  10
BRANCH   7  12
ATOM     12  O   UNL     1      -6.463  -0.996 -27.933  1.00  0.00    -0.378 OA
ATOM     13  H   UNL     1      -6.467  -0.846 -28.903  1.00  0.00     0.212 HD
ENDBRANCH   7  12
BRANCH   7  14
ATOM     14  C   UNL     1      -5.113  -0.861 -25.931  1.00  0.00     0.335 C 
ATOM     15  O   UNL     1      -5.564  -1.800 -25.296  1.00  0.00    -0.249 OA
BRANCH  14  16
ATOM     16  O   UNL     1      -4.556   0.231 -25.348  1.00  0.00    -0.479 OA
ATOM     17  H   UNL     1      -4.001  -0.049 -24.585  1.00  0.00     0.296 HD
ENDBRANCH  14  16
ENDBRANCH   7  14
BRANCH   8  18
ATOM     18  O   UNL     1      -3.735  -0.253 -31.452  1.00  0.00    -0.387 OA
ATOM     19  H   UNL     1      -3.216  -1.022 -31.767  1.00  0.00     0.211 HD
ENDBRANCH   8  18
ENDBRANCH   3   4
ENDBRANCH   1   3
BRANCH   1  20
ATOM     20  C   UNL     1      -6.234   2.273 -30.674  1.00  0.00     0.094 C 
ATOM     21  C   UNL     1      -6.664   1.982 -31.912  1.00  0.00     0.016 C 
BRANCH  21  22
ATOM     22  C   UNL     1      -7.950   1.328 -32.186  1.00  0.00    -0.021 A 
ATOM     23  C   UNL     1      -8.898   1.103 -31.173  1.00  0.00     0.058 A 
ATOM     24  C   UNL     1      -8.258   0.973 -33.508  1.00  0.00     0.012 A 
ATOM     25  C   UNL     1     -10.115   0.510 -31.494  1.00  0.00     0.157 A 
ATOM     26  C   UNL     1      -9.483   0.376 -33.820  1.00  0.00     0.051 A 
ATOM     27  C   UNL     1     -10.400   0.148 -32.807  1.00  0.00     0.157 A 
BRANCH  25  28
ATOM     28  O   UNL     1     -11.073   0.268 -30.547  1.00  0.00    -0.504 OA
ATOM     29  H   UNL     1     -11.137  -0.694 -30.417  1.00  0.00     0.293 HD
ENDBRANCH  25  28
BRANCH  27  30
ATOM     30  O   UNL     1     -11.598  -0.432 -33.111  1.00  0.00    -0.504 OA
ATOM     31  H   UNL     1     -11.384  -1.376 -33.254  1.00  0.00     0.293 HD
ENDBRANCH  27  30
ENDBRANCH  21  22
ENDBRANCH   1  20
TORSDOF 11
ENDMDL
MODEL 2
REMARK VINA RESULT:      -8.0      1.738      4.206
REMARK SMILES O=C(/C=C/c1ccc(O)c(O)c1)O[C@@H]1C[C@](O)(C(=O)O)C[C@@H](O)[C@H]1O
REMARK SMILES IDX 2 1 1 2 13 3 14 4 21 5 22 6 16 7 24 8 15 9 23 10 17 12 18 14
REMARK SMILES IDX 19 15 20 16 25 18 3 20 4 21 5 22 12 23 6 24 10 25 7 26 8 27
REMARK SMILES IDX 11 28 9 30
REMARK H PARENT 23 11 17 13 20 17 25 19 11 29 9 31
ROOT
ATOM      1  C   UNL     1      -6.962  -1.016 -27.034  1.00  0.00     0.331 C 
ATOM      2  O   UNL     1      -7.444  -1.181 -25.922  1.00  0.00    -0.247 OA
ENDROOT
BRANCH   1   3
ATOM      3  O   UNL     1      -5.718  -1.385 -27.419  1.00  0.00    -0.456 OA
BRANCH   3   4
ATOM      4  C   UNL     1      -4.883  -0.327 -27.937  1.00  0.00     0.211 C 
ATOM      5  C   UNL     1      -2.165   0.562 -28.754  1.00  0.00     0.082 C 
ATOM      6  C   UNL     1      -2.770   1.001 -27.421  1.00  0.00     0.150 C 
ATOM      7  C   UNL     1      -3.247   0.233 -29.791  1.00  0.00     0.167 C 
ATOM      8  C   UNL     1      -3.805  -0.003 -26.887  1.00  0.00     0.184 C 
ATOM      9  C   UNL     1      -4.242  -0.791 -29.250  1.00  0.00     0.095 C 
BRANCH   6  10
ATOM     10  O   UNL     1      -3.400   2.287 -27.543  1.00  0.00    -0.390 OA
ATOM     11  H   UNL     1      -3.357   2.564 -28.482  1.00  0.00     0.211 HD
ENDBRANCH   6  10
BRANCH   7  12
ATOM     12  O   UNL     1      -3.943   1.458 -30.115  1.00  0.00    -0.378 OA
ATOM     13  H   UNL     1      -3.341   1.999 -30.670  1.00  0.00     0.212 HD
ENDBRANCH   7  12
BRANCH   7  14
ATOM     14  C   UNL     1      -2.564  -0.288 -31.065  1.00  0.00     0.335 C 
ATOM     15  O   UNL     1      -3.056  -1.079 -31.853  1.00  0.00    -0.249 OA
BRANCH  14  16
ATOM     16  O   UNL     1      -1.316   0.225 -31.209  1.00  0.00    -0.479 OA
ATOM     17  H   UNL     1      -1.186   0.962 -30.569  1.00  0.00     0.296 HD
ENDBRANCH  14  16
ENDBRANCH   7  14
BRANCH   8  18
ATOM     18  O   UNL     1      -4.424   0.554 -25.719  1.00  0.00    -0.387 OA
ATOM     19  H   UNL     1      -5.291   0.105 -25.636  1.00  0.00     0.211 HD
ENDBRANCH   8  18
ENDBRANCH   3   4
ENDBRANCH   1   3
BRANCH   1  20
ATOM     20  C   UNL     1      -7.697  -0.328 -28.115  1.00  0.00     0.094 C 
ATOM     21  C   UNL     1      -8.099  -0.924 -29.249  1.00  0.00     0.016 C 
BRANCH  21  22
ATOM     22  C   UNL     1      -8.840  -0.225 -30.307  1.00  0.00    -0.021 A 
ATOM     23  C   UNL     1      -9.949  -0.805 -30.944  1.00  0.00     0.058 A 
ATOM     24  C   UNL     1      -8.458   1.083 -30.647  1.00  0.00     0.012 A 
ATOM     25  C   UNL     1     -10.635  -0.085 -31.917  1.00  0.00     0.157 A 
ATOM     26  C   UNL     1      -9.152   1.798 -31.627  1.00  0.00     0.051 A 
ATOM     27  C   UNL     1     -10.235   1.204 -32.255  1.00  0.00     0.157 A 
BRANCH  25  28
ATOM     28  O   UNL     1     -11.721  -0.603 -32.568  1.00  0.00    -0.504 OA
ATOM     29  H   UNL     1     -11.798  -1.544 -32.335  1.00  0.00     0.293 HD
ENDBRANCH  25  28
BRANCH  27  30
ATOM     30  O   UNL     1     -10.916   1.902 -33.210  1.00  0.00    -0.504 OA
ATOM     31  H   UNL     1     -11.433   2.564 -32.708  1.00  0.00     0.293 HD
ENDBRANCH  27  30
ENDBRANCH  21  22
ENDBRANCH   1  20
TORSDOF 11
ENDMDL
MODEL 3
REMARK VINA RESULT:      -7.8      4.447      6.993
REMARK SMILES O=C(/C=C/c1ccc(O)c(O)c1)O[C@@H]1C[C@](O)(C(=O)O)C[C@@H](O)[C@H]1O
REMARK SMILES IDX 2 1 1 2 13 3 14 4 21 5 22 6 16 7 24 8 15 9 23 10 17 12 18 14
REMARK SMILES IDX 19 15 20 16 25 18 3 20 4 21 5 22 12 23 6 24 10 25 7 26 8 27
REMARK SMILES IDX 11 28 9 30
REMARK H PARENT 23 11 17 13 20 17 25 19 11 29 9 31
ROOT
ATOM      1  C   UNL     1      -7.128  -2.349 -29.247  1.00  0.00     0.331 C 
ATOM      2  O   UNL     1      -6.220  -1.980 -28.514  1.00  0.00    -0.247 OA
ENDROOT
BRANCH   1   3
ATOM      3  O   UNL     1      -7.247  -2.062 -30.564  1.00  0.00    -0.456 OA
BRANCH   3   4
ATOM      4  C   UNL     1      -7.560  -0.689 -30.880  1.00  0.00     0.211 C 
ATOM      5  C   UNL     1      -7.944   1.386 -32.976  1.00  0.00     0.082 C 
ATOM      6  C   UNL     1      -6.665   1.338 -32.140  1.00  0.00     0.150 C 
ATOM      7  C   UNL     1      -9.135   0.766 -32.234  1.00  0.00     0.167 C 
ATOM      8  C   UNL     1      -6.357  -0.076 -31.620  1.00  0.00     0.184 C 
ATOM      9  C   UNL     1      -8.816  -0.650 -31.758  1.00  0.00     0.095 C 
BRANCH   6  10
ATOM     10  O   UNL     1      -6.754   2.230 -31.017  1.00  0.00    -0.390 OA
ATOM     11  H   UNL     1      -6.334   3.080 -31.263  1.00  0.00     0.211 HD
ENDBRANCH   6  10
BRANCH   7  12
ATOM     12  O   UNL     1      -9.437   1.601 -31.094  1.00  0.00    -0.378 OA
ATOM     13  H   UNL     1     -10.236   1.230 -30.662  1.00  0.00     0.212 HD
ENDBRANCH   7  12
BRANCH   7  14
ATOM     14  C   UNL     1     -10.353   0.767 -33.171  1.00  0.00     0.335 C 
ATOM     15  O   UNL     1     -10.681  -0.157 -33.897  1.00  0.00    -0.249 OA
BRANCH  14  16
ATOM     16  O   UNL     1     -11.025   1.945 -33.116  1.00  0.00    -0.479 OA
ATOM     17  H   UNL     1     -10.522   2.586 -32.563  1.00  0.00     0.296 HD
ENDBRANCH  14  16
ENDBRANCH   7  14
BRANCH   8  18
ATOM     18  O   UNL     1      -5.233  -0.003 -30.732  1.00  0.00    -0.387 OA
ATOM     19  H   UNL     1      -4.443   0.072 -31.306  1.00  0.00     0.211 HD
ENDBRANCH   8  18
ENDBRANCH   3   4
ENDBRANCH   1   3
BRANCH   1  20
ATOM     20  C   UNL     1      -8.266  -3.146 -28.747  1.00  0.00     0.094 C 
ATOM     21  C   UNL     1      -9.215  -2.672 -27.925  1.00  0.00     0.016 C 
BRANCH  21  22
ATOM     22  C   UNL     1     -10.346  -3.478 -27.449  1.00  0.00    -0.021 A 
ATOM     23  C   UNL     1     -10.518  -4.817 -27.837  1.00  0.00     0.058 A 
ATOM     24  C   UNL     1     -11.245  -2.906 -26.536  1.00  0.00     0.012 A 
ATOM     25  C   UNL     1     -11.590  -5.546 -27.329  1.00  0.00     0.157 A 
ATOM     26  C   UNL     1     -12.320  -3.645 -26.033  1.00  0.00     0.051 A 
ATOM     27  C   UNL     1     -12.483  -4.961 -26.438  1.00  0.00     0.157 A 
BRANCH  25  28
ATOM     28  O   UNL     1     -11.804  -6.852 -27.675  1.00  0.00    -0.504 OA
ATOM     29  H   UNL     1     -12.762  -7.016 -27.674  1.00  0.00     0.293 HD
ENDBRANCH  25  28
BRANCH  27  30
ATOM     30  O   UNL     1     -13.530  -5.685 -25.945  1.00  0.00    -0.504 OA
ATOM     31  H   UNL     1     -13.725  -6.341 -26.644  1.00  0.00     0.293 HD
ENDBRANCH  27  30
ENDBRANCH  21  22
ENDBRANCH   1  20
TORSDOF 11
ENDMDL
MODEL 4
REMARK VINA RESULT:      -7.8      3.872      4.615
REMARK SMILES O=C(/C=C/c1ccc(O)c(O)c1)O[C@@H]1C[C@](O)(C(=O)O)C[C@@H](O)[C@H]1O
REMARK SMILES IDX 2 1 1 2 13 3 14 4 21 5 22 6 16 7 24 8 15 9 23 10 17 12 18 14
REMARK SMILES IDX 19 15 20 16 25 18 3 20 4 21 5 22 12 23 6 24 10 25 7 26 8 27
REMARK SMILES IDX 11 28 9 30
REMARK H PARENT 23 11 17 13 20 17 25 19 11 29 9 31
ROOT
ATOM      1  C   UNL     1      -7.782  -0.664 -30.919  1.00  0.00     0.331 C 
ATOM      2  O   UNL     1      -7.813  -0.588 -32.140  1.00  0.00    -0.247 OA
ENDROOT
BRANCH   1   3
ATOM      3  O   UNL     1      -7.000   0.078 -30.100  1.00  0.00    -0.456 OA
BRANCH   3   4
ATOM      4  C   UNL     1      -6.002  -0.652 -29.357  1.00  0.00     0.211 C 
ATOM      5  C   UNL     1      -3.773  -0.574 -27.388  1.00  0.00     0.082 C 
ATOM      6  C   UNL     1      -3.497  -0.720 -28.884  1.00  0.00     0.150 C 
ATOM      7  C   UNL     1      -5.160  -1.107 -27.009  1.00  0.00     0.167 C 
ATOM      8  C   UNL     1      -4.614  -0.112 -29.749  1.00  0.00     0.184 C 
ATOM      9  C   UNL     1      -6.255  -0.462 -27.857  1.00  0.00     0.095 C 
BRANCH   6  10
ATOM     10  O   UNL     1      -3.342  -2.103 -29.244  1.00  0.00    -0.390 OA
ATOM     11  H   UNL     1      -4.038  -2.333 -29.894  1.00  0.00     0.211 HD
ENDBRANCH   6  10
BRANCH   7  12
ATOM     12  O   UNL     1      -5.165  -2.537 -27.221  1.00  0.00    -0.378 OA
ATOM     13  H   UNL     1      -4.435  -2.914 -26.685  1.00  0.00     0.212 HD
ENDBRANCH   7  12
BRANCH   7  14
ATOM     14  C   UNL     1      -5.398  -0.839 -25.514  1.00  0.00     0.335 C 
ATOM     15  O   UNL     1      -6.065  -1.540 -24.772  1.00  0.00    -0.249 OA
BRANCH  14  16
ATOM     16  O   UNL     1      -4.786   0.302 -25.108  1.00  0.00    -0.479 OA
ATOM     17  H   UNL     1      -3.812   0.164 -25.083  1.00  0.00     0.296 HD
ENDBRANCH  14  16
ENDBRANCH   7  14
BRANCH   8  18
ATOM     18  O   UNL     1      -4.349  -0.421 -31.125  1.00  0.00    -0.387 OA
ATOM     19  H   UNL     1      -5.213  -0.670 -31.514  1.00  0.00     0.211 HD
ENDBRANCH   8  18
ENDBRANCH   3   4
ENDBRANCH   1   3
BRANCH   1  20
ATOM     20  C   UNL     1      -8.595  -1.644 -30.171  1.00  0.00     0.094 C 
ATOM     21  C   UNL     1      -8.592  -2.965 -30.411  1.00  0.00     0.016 C 
BRANCH  21  22
ATOM     22  C   UNL     1      -9.400  -3.925 -29.648  1.00  0.00    -0.021 A 
ATOM     23  C   UNL     1      -9.390  -3.951 -28.244  1.00  0.00     0.058 A 
ATOM     24  C   UNL     1     -10.246  -4.799 -30.347  1.00  0.00     0.012 A 
ATOM     25  C   UNL     1     -10.201  -4.859 -27.570  1.00  0.00     0.157 A 
ATOM     26  C   UNL     1     -11.056  -5.710 -29.661  1.00  0.00     0.051 A 
ATOM     27  C   UNL     1     -11.023  -5.732 -28.275  1.00  0.00     0.157 A 
BRANCH  25  28
ATOM     28  O   UNL     1     -10.229  -4.927 -26.203  1.00  0.00    -0.504 OA
ATOM     29  H   UNL     1      -9.476  -5.467 -25.908  1.00  0.00     0.293 HD
ENDBRANCH  25  28
BRANCH  27  30
ATOM     30  O   UNL     1     -11.815  -6.618 -27.605  1.00  0.00    -0.504 OA
ATOM     31  H   UNL     1     -11.314  -7.458 -27.624  1.00  0.00     0.293 HD
ENDBRANCH  27  30
ENDBRANCH  21  22
ENDBRANCH   1  20
TORSDOF 11
ENDMDL
MODEL 5
REMARK VINA RESULT:      -7.8      5.505      7.213
REMARK SMILES O=C(/C=C/c1ccc(O)c(O)c1)O[C@@H]1C[C@](O)(C(=O)O)C[C@@H](O)[C@H]1O
REMARK SMILES IDX 2 1 1 2 13 3 14 4 21 5 22 6 16 7 24 8 15 9 23 10 17 12 18 14
REMARK SMILES IDX 19 15 20 16 25 18 3 20 4 21 5 22 12 23 6 24 10 25 7 26 8 27
REMARK SMILES IDX 11 28 9 30
REMARK H PARENT 23 11 17 13 20 17 25 19 11 29 9 31
ROOT
ATOM      1  C   UNL     1     -10.050  -5.014 -29.810  1.00  0.00     0.331 C 
ATOM      2  O   UNL     1     -10.660  -5.915 -30.368  1.00  0.00    -0.247 OA
ENDROOT
BRANCH   1   3
ATOM      3  O   UNL     1      -9.757  -4.957 -28.489  1.00  0.00    -0.456 OA
BRANCH   3   4
ATOM      4  C   UNL     1     -10.880  -4.741 -27.608  1.00  0.00     0.211 C 
ATOM      5  C   UNL     1     -11.892  -4.575 -24.816  1.00  0.00     0.082 C 
ATOM      6  C   UNL     1     -12.154  -5.811 -25.676  1.00  0.00     0.150 C 
ATOM      7  C   UNL     1     -11.686  -3.318 -25.671  1.00  0.00     0.167 C 
ATOM      8  C   UNL     1     -11.080  -6.010 -26.759  1.00  0.00     0.184 C 
ATOM      9  C   UNL     1     -10.592  -3.529 -26.716  1.00  0.00     0.095 C 
BRANCH   6  10
ATOM     10  O   UNL     1     -13.438  -5.728 -26.315  1.00  0.00    -0.390 OA
ATOM     11  H   UNL     1     -13.415  -6.274 -27.128  1.00  0.00     0.211 HD
ENDBRANCH   6  10
BRANCH   7  12
ATOM     12  O   UNL     1     -12.935  -3.018 -26.335  1.00  0.00    -0.378 OA
ATOM     13  H   UNL     1     -13.622  -2.933 -25.640  1.00  0.00     0.212 HD
ENDBRANCH   7  12
BRANCH   7  14
ATOM     14  C   UNL     1     -11.337  -2.144 -24.743  1.00  0.00     0.335 C 
ATOM     15  O   UNL     1     -10.931  -1.054 -25.111  1.00  0.00    -0.249 OA
BRANCH  14  16
ATOM     16  O   UNL     1     -11.514  -2.469 -23.437  1.00  0.00    -0.479 OA
ATOM     17  H   UNL     1     -12.357  -2.080 -23.111  1.00  0.00     0.296 HD
ENDBRANCH  14  16
ENDBRANCH   7  14
BRANCH   8  18
ATOM     18  O   UNL     1     -11.479  -7.098 -27.606  1.00  0.00    -0.387 OA
ATOM     19  H   UNL     1     -11.093  -6.906 -28.486  1.00  0.00     0.211 HD
ENDBRANCH   8  18
ENDBRANCH   3   4
ENDBRANCH   1   3
BRANCH   1  20
ATOM     20  C   UNL     1      -9.580  -3.816 -30.534  1.00  0.00     0.094 C 
ATOM     21  C   UNL     1     -10.270  -2.668 -30.619  1.00  0.00     0.016 C 
BRANCH  21  22
ATOM     22  C   UNL     1      -9.779  -1.483 -31.335  1.00  0.00    -0.021 A 
ATOM     23  C   UNL     1     -10.648  -0.479 -31.792  1.00  0.00     0.058 A 
ATOM     24  C   UNL     1      -8.395  -1.329 -31.514  1.00  0.00     0.012 A 
ATOM     25  C   UNL     1     -10.126   0.639 -32.435  1.00  0.00     0.157 A 
ATOM     26  C   UNL     1      -7.880  -0.203 -32.164  1.00  0.00     0.051 A 
ATOM     27  C   UNL     1      -8.753   0.771 -32.621  1.00  0.00     0.157 A 
BRANCH  25  28
ATOM     28  O   UNL     1     -10.928   1.646 -32.901  1.00  0.00    -0.504 OA
ATOM     29  H   UNL     1     -11.082   2.274 -32.175  1.00  0.00     0.293 HD
ENDBRANCH  25  28
BRANCH  27  30
ATOM     30  O   UNL     1      -8.251   1.872 -33.252  1.00  0.00    -0.504 OA
ATOM     31  H   UNL     1      -8.758   2.621 -32.878  1.00  0.00     0.293 HD
ENDBRANCH  27  30
ENDBRANCH  21  22
ENDBRANCH   1  20
TORSDOF 11
ENDMDL
MODEL 6
REMARK VINA RESULT:      -7.7      4.558      7.637
REMARK SMILES O=C(/C=C/c1ccc(O)c(O)c1)O[C@@H]1C[C@](O)(C(=O)O)C[C@@H](O)[C@H]1O
REMARK SMILES IDX 2 1 1 2 13 3 14 4 21 5 22 6 16 7 24 8 15 9 23 10 17 12 18 14
REMARK SMILES IDX 19 15 20 16 25 18 3 20 4 21 5 22 12 23 6 24 10 25 7 26 8 27
REMARK SMILES IDX 11 28 9 30
REMARK H PARENT 23 11 17 13 20 17 25 19 11 29 9 31
ROOT
ATOM      1  C   UNL     1      -7.931  -3.382 -29.780  1.00  0.00     0.331 C 
ATOM      2  O   UNL     1      -7.854  -4.334 -30.544  1.00  0.00    -0.247 OA
ENDROOT
BRANCH   1   3
ATOM      3  O   UNL     1      -9.076  -2.802 -29.351  1.00  0.00    -0.456 OA
BRANCH   3   4
ATOM      4  C   UNL     1      -9.479  -3.134 -28.005  1.00  0.00     0.211 C 
ATOM      5  C   UNL     1     -11.653  -3.214 -25.976  1.00  0.00     0.082 C 
ATOM      6  C   UNL     1     -10.572  -2.134 -25.930  1.00  0.00     0.150 C 
ATOM      7  C   UNL     1     -11.157  -4.488 -26.672  1.00  0.00     0.167 C 
ATOM      8  C   UNL     1      -9.970  -1.847 -27.315  1.00  0.00     0.184 C 
ATOM      9  C   UNL     1     -10.596  -4.182 -28.059  1.00  0.00     0.095 C 
BRANCH   6  10
ATOM     10  O   UNL     1      -9.510  -2.511 -25.038  1.00  0.00    -0.390 OA
ATOM     11  H   UNL     1      -8.992  -3.227 -25.460  1.00  0.00     0.211 HD
ENDBRANCH   6  10
BRANCH   7  12
ATOM     12  O   UNL     1     -10.122  -5.073 -25.851  1.00  0.00    -0.378 OA
ATOM     13  H   UNL     1      -9.315  -5.145 -26.404  1.00  0.00     0.212 HD
ENDBRANCH   7  12
BRANCH   7  14
ATOM     14  C   UNL     1     -12.324  -5.485 -26.762  1.00  0.00     0.335 C 
ATOM     15  O   UNL     1     -13.329  -5.454 -26.071  1.00  0.00    -0.249 OA
BRANCH  14  16
ATOM     16  O   UNL     1     -12.096  -6.437 -27.702  1.00  0.00    -0.479 OA
ATOM     17  H   UNL     1     -11.137  -6.658 -27.722  1.00  0.00     0.296 HD
ENDBRANCH  14  16
ENDBRANCH   7  14
BRANCH   8  18
ATOM     18  O   UNL     1      -8.872  -0.937 -27.158  1.00  0.00    -0.387 OA
ATOM     19  H   UNL     1      -9.135  -0.118 -27.628  1.00  0.00     0.211 HD
ENDBRANCH   8  18
ENDBRANCH   3   4
ENDBRANCH   1   3
BRANCH   1  20
ATOM     20  C   UNL     1      -6.732  -2.700 -29.250  1.00  0.00     0.094 C 
ATOM     21  C   UNL     1      -5.972  -1.852 -29.961  1.00  0.00     0.016 C 
BRANCH  21  22
ATOM     22  C   UNL     1      -4.791  -1.174 -29.411  1.00  0.00    -0.021 A 
ATOM     23  C   UNL     1      -3.716  -0.780 -30.226  1.00  0.00     0.058 A 
ATOM     24  C   UNL     1      -4.767  -0.864 -28.043  1.00  0.00     0.012 A 
ATOM     25  C   UNL     1      -2.636  -0.111 -29.658  1.00  0.00     0.157 A 
ATOM     26  C   UNL     1      -3.676  -0.194 -27.481  1.00  0.00     0.051 A 
ATOM     27  C   UNL     1      -2.618   0.174 -28.296  1.00  0.00     0.157 A 
BRANCH  25  28
ATOM     28  O   UNL     1      -1.563   0.294 -30.405  1.00  0.00    -0.504 OA
ATOM     29  H   UNL     1      -1.187  -0.485 -30.848  1.00  0.00     0.293 HD
ENDBRANCH  25  28
BRANCH  27  30
ATOM     30  O   UNL     1      -1.554   0.832 -27.750  1.00  0.00    -0.504 OA
ATOM     31  H   UNL     1      -0.788   0.251 -27.931  1.00  0.00     0.293 HD
ENDBRANCH  27  30
ENDBRANCH  21  22
ENDBRANCH   1  20
TORSDOF 11
ENDMDL
MODEL 7
REMARK VINA RESULT:      -7.7      2.719      7.084
REMARK SMILES O=C(/C=C/c1ccc(O)c(O)c1)O[C@@H]1C[C@](O)(C(=O)O)C[C@@H](O)[C@H]1O
REMARK SMILES IDX 2 1 1 2 13 3 14 4 21 5 22 6 16 7 24 8 15 9 23 10 17 12 18 14
REMARK SMILES IDX 19 15 20 16 25 18 3 20 4 21 5 22 12 23 6 24 10 25 7 26 8 27
REMARK SMILES IDX 11 28 9 30
REMARK H PARENT 23 11 17 13 20 17 25 19 11 29 9 31
ROOT
ATOM      1  C   UNL     1      -8.169  -1.275 -26.394  1.00  0.00     0.331 C 
ATOM      2  O   UNL     1      -8.104  -1.526 -25.198  1.00  0.00    -0.247 OA
ENDROOT
BRANCH   1   3
ATOM      3  O   UNL     1      -9.268  -1.413 -27.172  1.00  0.00    -0.456 OA
BRANCH   3   4
ATOM      4  C   UNL     1      -9.016  -1.684 -28.567  1.00  0.00     0.211 C 
ATOM      5  C   UNL     1     -10.108  -2.525 -31.203  1.00  0.00     0.082 C 
ATOM      6  C   UNL     1      -9.291  -3.491 -30.345  1.00  0.00     0.150 C 
ATOM      7  C   UNL     1      -9.751  -1.062 -30.913  1.00  0.00     0.167 C 
ATOM      8  C   UNL     1      -9.373  -3.156 -28.846  1.00  0.00     0.184 C 
ATOM      9  C   UNL     1      -9.874  -0.745 -29.423  1.00  0.00     0.095 C 
BRANCH   6  10
ATOM     10  O   UNL     1      -7.910  -3.485 -30.740  1.00  0.00    -0.390 OA
ATOM     11  H   UNL     1      -7.867  -3.378 -31.713  1.00  0.00     0.211 HD
ENDBRANCH   6  10
BRANCH   7  12
ATOM     12  O   UNL     1      -8.390  -0.838 -31.343  1.00  0.00    -0.378 OA
ATOM     13  H   UNL     1      -8.238  -1.395 -32.136  1.00  0.00     0.212 HD
ENDBRANCH   7  12
BRANCH   7  14
ATOM     14  C   UNL     1     -10.676  -0.157 -31.742  1.00  0.00     0.335 C 
ATOM     15  O   UNL     1     -11.490  -0.547 -32.563  1.00  0.00    -0.249 OA
BRANCH  14  16
ATOM     16  O   UNL     1     -10.467   1.156 -31.468  1.00  0.00    -0.479 OA
ATOM     17  H   UNL     1     -10.808   1.706 -32.210  1.00  0.00     0.296 HD
ENDBRANCH  14  16
ENDBRANCH   7  14
BRANCH   8  18
ATOM     18  O   UNL     1      -8.468  -4.013 -28.135  1.00  0.00    -0.387 OA
ATOM     19  H   UNL     1      -9.030  -4.588 -27.575  1.00  0.00     0.211 HD
ENDBRANCH   8  18
ENDBRANCH   3   4
ENDBRANCH   1   3
BRANCH   1  20
ATOM     20  C   UNL     1      -6.997  -0.814 -27.165  1.00  0.00     0.094 C 
ATOM     21  C   UNL     1      -5.789  -1.398 -27.121  1.00  0.00     0.016 C 
BRANCH  21  22
ATOM     22  C   UNL     1      -4.639  -0.931 -27.905  1.00  0.00    -0.021 A 
ATOM     23  C   UNL     1      -3.650  -0.101 -27.351  1.00  0.00     0.058 A 
ATOM     24  C   UNL     1      -4.500  -1.377 -29.229  1.00  0.00     0.012 A 
ATOM     25  C   UNL     1      -2.563   0.284 -28.130  1.00  0.00     0.157 A 
ATOM     26  C   UNL     1      -3.406  -0.982 -30.005  1.00  0.00     0.051 A 
ATOM     27  C   UNL     1      -2.447  -0.152 -29.446  1.00  0.00     0.157 A 
BRANCH  25  28
ATOM     28  O   UNL     1      -1.573   1.092 -27.640  1.00  0.00    -0.504 OA
ATOM     29  H   UNL     1      -1.352   1.751 -28.319  1.00  0.00     0.293 HD
ENDBRANCH  25  28
BRANCH  27  30
ATOM     30  O   UNL     1      -1.377   0.232 -30.201  1.00  0.00    -0.504 OA
ATOM     31  H   UNL     1      -0.987  -0.608 -30.518  1.00  0.00     0.293 HD
ENDBRANCH  27  30
ENDBRANCH  21  22
ENDBRANCH   1  20
TORSDOF 11
ENDMDL
MODEL 8
REMARK VINA RESULT:      -7.6      3.851      5.184
REMARK SMILES O=C(/C=C/c1ccc(O)c(O)c1)O[C@@H]1C[C@](O)(C(=O)O)C[C@@H](O)[C@H]1O
REMARK SMILES IDX 2 1 1 2 13 3 14 4 21 5 22 6 16 7 24 8 15 9 23 10 17 12 18 14
REMARK SMILES IDX 19 15 20 16 25 18 3 20 4 21 5 22 12 23 6 24 10 25 7 26 8 27
REMARK SMILES IDX 11 28 9 30
REMARK H PARENT 23 11 17 13 20 17 25 19 11 29 9 31
ROOT
ATOM      1  C   UNL     1      -7.171  -0.866 -31.142  1.00  0.00     0.331 C 
ATOM      2  O   UNL     1      -7.392  -0.011 -31.989  1.00  0.00    -0.247 OA
ENDROOT
BRANCH   1   3
ATOM      3  O   UNL     1      -5.960  -1.161 -30.613  1.00  0.00    -0.456 OA
BRANCH   3   4
ATOM      4  C   UNL     1      -5.605  -0.434 -29.418  1.00  0.00     0.211 C 
ATOM      5  C   UNL     1      -3.458   0.782 -27.757  1.00  0.00     0.082 C 
ATOM      6  C   UNL     1      -4.096  -0.551 -27.367  1.00  0.00     0.150 C 
ATOM      7  C   UNL     1      -4.407   1.645 -28.597  1.00  0.00     0.167 C 
ATOM      8  C   UNL     1      -4.657  -1.311 -28.581  1.00  0.00     0.184 C 
ATOM      9  C   UNL     1      -4.923   0.880 -29.815  1.00  0.00     0.095 C 
BRANCH   6  10
ATOM     10  O   UNL     1      -5.159  -0.352 -26.421  1.00  0.00    -0.390 OA
ATOM     11  H   UNL     1      -5.769  -1.117 -26.476  1.00  0.00     0.211 HD
ENDBRANCH   6  10
BRANCH   7  12
ATOM     12  O   UNL     1      -5.522   2.029 -27.762  1.00  0.00    -0.378 OA
ATOM     13  H   UNL     1      -5.474   3.001 -27.638  1.00  0.00     0.212 HD
ENDBRANCH   7  12
BRANCH   7  14
ATOM     14  C   UNL     1      -3.663   2.919 -29.027  1.00  0.00     0.335 C 
ATOM     15  O   UNL     1      -3.022   3.643 -28.283  1.00  0.00    -0.249 OA
BRANCH  14  16
ATOM     16  O   UNL     1      -3.820   3.167 -30.352  1.00  0.00    -0.479 OA
ATOM     17  H   UNL     1      -4.197   4.067 -30.478  1.00  0.00     0.296 HD
ENDBRANCH  14  16
ENDBRANCH   7  14
BRANCH   8  18
ATOM     18  O   UNL     1      -5.362  -2.469 -28.111  1.00  0.00    -0.387 OA
ATOM     19  H   UNL     1      -4.685  -3.170 -28.008  1.00  0.00     0.211 HD
ENDBRANCH   8  18
ENDBRANCH   3   4
ENDBRANCH   1   3
BRANCH   1  20
ATOM     20  C   UNL     1      -8.237  -1.738 -30.609  1.00  0.00     0.094 C 
ATOM     21  C   UNL     1      -8.024  -2.961 -30.097  1.00  0.00     0.016 C 
BRANCH  21  22
ATOM     22  C   UNL     1      -9.098  -3.808 -29.561  1.00  0.00    -0.021 A 
ATOM     23  C   UNL     1      -9.882  -4.625 -30.391  1.00  0.00     0.058 A 
ATOM     24  C   UNL     1      -9.301  -3.840 -28.173  1.00  0.00     0.012 A 
ATOM     25  C   UNL     1     -10.864  -5.434 -29.826  1.00  0.00     0.157 A 
ATOM     26  C   UNL     1     -10.292  -4.654 -27.615  1.00  0.00     0.051 A 
ATOM     27  C   UNL     1     -11.067  -5.443 -28.450  1.00  0.00     0.157 A 
BRANCH  25  28
ATOM     28  O   UNL     1     -11.657  -6.248 -30.589  1.00  0.00    -0.504 OA
ATOM     29  H   UNL     1     -12.579  -5.957 -30.489  1.00  0.00     0.293 HD
ENDBRANCH  25  28
BRANCH  27  30
ATOM     30  O   UNL     1     -12.032  -6.240 -27.906  1.00  0.00    -0.504 OA
ATOM     31  H   UNL     1     -11.752  -7.151 -28.129  1.00  0.00     0.293 HD
ENDBRANCH  27  30
ENDBRANCH  21  22
ENDBRANCH   1  20
TORSDOF 11
ENDMDL
MODEL 9
REMARK VINA RESULT:      -7.6      4.721      7.860
REMARK SMILES O=C(/C=C/c1ccc(O)c(O)c1)O[C@@H]1C[C@](O)(C(=O)O)C[C@@H](O)[C@H]1O
REMARK SMILES IDX 2 1 1 2 13 3 14 4 21 5 22 6 16 7 24 8 15 9 23 10 17 12 18 14
REMARK SMILES IDX 19 15 20 16 25 18 3 20 4 21 5 22 12 23 6 24 10 25 7 26 8 27
REMARK SMILES IDX 11 28 9 30
REMARK H PARENT 23 11 17 13 20 17 25 19 11 29 9 31
ROOT
ATOM      1  C   UNL     1      -8.089  -0.890 -25.970  1.00  0.00     0.331 C 
ATOM      2  O   UNL     1      -8.118  -0.838 -24.748  1.00  0.00    -0.247 OA
ENDROOT
BRANCH   1   3
ATOM      3  O   UNL     1      -9.081  -1.354 -26.766  1.00  0.00    -0.456 OA
BRANCH   3   4
ATOM      4  C   UNL     1      -9.877  -2.424 -26.214  1.00  0.00     0.211 C 
ATOM      5  C   UNL     1     -12.236  -4.212 -26.505  1.00  0.00     0.082 C 
ATOM      6  C   UNL     1     -12.267  -3.017 -25.553  1.00  0.00     0.150 C 
ATOM      7  C   UNL     1     -10.808  -4.725 -26.731  1.00  0.00     0.167 C 
ATOM      8  C   UNL     1     -11.306  -1.897 -25.987  1.00  0.00     0.184 C 
ATOM      9  C   UNL     1      -9.882  -3.602 -27.194  1.00  0.00     0.095 C 
BRANCH   6  10
ATOM     10  O   UNL     1     -11.928  -3.418 -24.216  1.00  0.00    -0.390 OA
ATOM     11  H   UNL     1     -10.984  -3.680 -24.201  1.00  0.00     0.211 HD
ENDBRANCH   6  10
BRANCH   7  12
ATOM     12  O   UNL     1     -10.323  -5.266 -25.482  1.00  0.00    -0.378 OA
ATOM     13  H   UNL     1     -11.051  -5.193 -24.829  1.00  0.00     0.212 HD
ENDBRANCH   7  12
BRANCH   7  14
ATOM     14  C   UNL     1     -10.852  -5.860 -27.767  1.00  0.00     0.335 C 
ATOM     15  O   UNL     1     -11.753  -6.046 -28.567  1.00  0.00    -0.249 OA
BRANCH  14  16
ATOM     16  O   UNL     1      -9.762  -6.663 -27.674  1.00  0.00    -0.479 OA
ATOM     17  H   UNL     1      -9.546  -6.819 -26.727  1.00  0.00     0.296 HD
ENDBRANCH  14  16
ENDBRANCH   7  14
BRANCH   8  18
ATOM     18  O   UNL     1     -11.289  -0.887 -24.968  1.00  0.00    -0.387 OA
ATOM     19  H   UNL     1     -10.504  -0.332 -25.155  1.00  0.00     0.211 HD
ENDBRANCH   8  18
ENDBRANCH   3   4
ENDBRANCH   1   3
BRANCH   1  20
ATOM     20  C   UNL     1      -6.902  -0.476 -26.746  1.00  0.00     0.094 C 
ATOM     21  C   UNL     1      -5.896  -1.300 -27.081  1.00  0.00     0.016 C 
BRANCH  21  22
ATOM     22  C   UNL     1      -4.730  -0.870 -27.864  1.00  0.00    -0.021 A 
ATOM     23  C   UNL     1      -3.724  -0.060 -27.313  1.00  0.00     0.058 A 
ATOM     24  C   UNL     1      -4.596  -1.334 -29.182  1.00  0.00     0.012 A 
ATOM     25  C   UNL     1      -2.623   0.289 -28.090  1.00  0.00     0.157 A 
ATOM     26  C   UNL     1      -3.488  -0.975 -29.956  1.00  0.00     0.051 A 
ATOM     27  C   UNL     1      -2.512  -0.164 -29.401  1.00  0.00     0.157 A 
BRANCH  25  28
ATOM     28  O   UNL     1      -1.615   1.076 -27.603  1.00  0.00    -0.504 OA
ATOM     29  H   UNL     1      -1.077   1.383 -28.353  1.00  0.00     0.293 HD
ENDBRANCH  25  28
BRANCH  27  30
ATOM     30  O   UNL     1      -1.428   0.184 -30.154  1.00  0.00    -0.504 OA
ATOM     31  H   UNL     1      -1.471   1.160 -30.211  1.00  0.00     0.293 HD
ENDBRANCH  27  30
ENDBRANCH  21  22
ENDBRANCH   1  20
TORSDOF 11
ENDMDL
MODEL 10
REMARK VINA RESULT:      -7.6      3.753      6.720
REMARK SMILES O=C(/C=C/c1ccc(O)c(O)c1)O[C@@H]1C[C@](O)(C(=O)O)C[C@@H](O)[C@H]1O
REMARK SMILES IDX 2 1 1 2 13 3 14 4 21 5 22 6 16 7 24 8 15 9 23 10 17 12 18 14
REMARK SMILES IDX 19 15 20 16 25 18 3 20 4 21 5 22 12 23 6 24 10 25 7 26 8 27
REMARK SMILES IDX 11 28 9 30
REMARK H PARENT 23 11 17 13 20 17 25 19 11 29 9 31
ROOT
ATOM      1  C   UNL     1      -8.425  -0.715 -31.221  1.00  0.00     0.331 C 
ATOM      2  O   UNL     1      -8.420  -0.871 -32.434  1.00  0.00    -0.247 OA
ENDROOT
BRANCH   1   3
ATOM      3  O   UNL     1      -9.481  -0.926 -30.401  1.00  0.00    -0.456 OA
BRANCH   3   4
ATOM      4  C   UNL     1      -9.248  -1.832 -29.302  1.00  0.00     0.211 C 
ATOM      5  C   UNL     1     -10.382  -3.796 -27.376  1.00  0.00     0.082 C 
ATOM      6  C   UNL     1     -10.038  -2.372 -26.939  1.00  0.00     0.150 C 
ATOM      7  C   UNL     1      -9.536  -4.245 -28.575  1.00  0.00     0.167 C 
ATOM      8  C   UNL     1     -10.098  -1.370 -28.104  1.00  0.00     0.184 C 
ATOM      9  C   UNL     1      -9.639  -3.251 -29.731  1.00  0.00     0.095 C 
BRANCH   6  10
ATOM     10  O   UNL     1      -8.727  -2.318 -26.355  1.00  0.00    -0.390 OA
ATOM     11  H   UNL     1      -8.298  -3.191 -26.477  1.00  0.00     0.211 HD
ENDBRANCH   6  10
BRANCH   7  12
ATOM     12  O   UNL     1      -8.160  -4.339 -28.142  1.00  0.00    -0.378 OA
ATOM     13  H   UNL     1      -7.918  -5.290 -28.142  1.00  0.00     0.212 HD
ENDBRANCH   7  12
BRANCH   7  14
ATOM     14  C   UNL     1     -10.003  -5.642 -29.012  1.00  0.00     0.335 C 
ATOM     15  O   UNL     1     -10.509  -5.909 -30.089  1.00  0.00    -0.249 OA
BRANCH  14  16
ATOM     16  O   UNL     1      -9.806  -6.563 -28.034  1.00  0.00    -0.479 OA
ATOM     17  H   UNL     1     -10.565  -6.546 -27.407  1.00  0.00     0.296 HD
ENDBRANCH  14  16
ENDBRANCH   7  14
BRANCH   8  18
ATOM     18  O   UNL     1      -9.623  -0.099 -27.640  1.00  0.00    -0.387 OA
ATOM     19  H   UNL     1      -8.735   0.016 -28.038  1.00  0.00     0.211 HD
ENDBRANCH   8  18
ENDBRANCH   3   4
ENDBRANCH   1   3
BRANCH   1  20
ATOM     20  C   UNL     1      -7.244  -0.216 -30.488  1.00  0.00     0.094 C 
ATOM     21  C   UNL     1      -6.028  -0.783 -30.543  1.00  0.00     0.016 C 
BRANCH  21  22
ATOM     22  C   UNL     1      -4.863  -0.264 -29.815  1.00  0.00    -0.021 A 
ATOM     23  C   UNL     1      -4.880   0.992 -29.186  1.00  0.00     0.058 A 
ATOM     24  C   UNL     1      -3.723  -1.075 -29.700  1.00  0.00     0.012 A 
ATOM     25  C   UNL     1      -3.760   1.421 -28.481  1.00  0.00     0.157 A 
ATOM     26  C   UNL     1      -2.602  -0.635 -28.992  1.00  0.00     0.051 A 
ATOM     27  C   UNL     1      -2.631   0.613 -28.389  1.00  0.00     0.157 A 
BRANCH  25  28
ATOM     28  O   UNL     1      -3.723   2.635 -27.851  1.00  0.00    -0.504 OA
ATOM     29  H   UNL     1      -3.023   3.171 -28.260  1.00  0.00     0.293 HD
ENDBRANCH  25  28
BRANCH  27  30
ATOM     30  O   UNL     1      -1.537   1.043 -27.694  1.00  0.00    -0.504 OA
ATOM     31  H   UNL     1      -1.789   1.928 -27.364  1.00  0.00     0.293 HD
ENDBRANCH  27  30
ENDBRANCH  21  22
ENDBRANCH   1  20
TORSDOF 11
ENDMDL
