MODEL 1
REMARK VINA RESULT:      -8.9      0.000      0.000
REMARK SMILES O=C(/C=C/c1ccc(O)c(O)c1)O[C@@H]1[C@H](O)C[C@@](O)(C(=O)O)C[C@H]1OC(=O)/C=C/c1ccc(O)c(O)c1
REMARK SMILES IDX 17 1 15 2 14 3 24 4 23 5 18 6 16 7 19 9 20 11 21 12 22 13
REMARK SMILES IDX 13 15 2 16 1 17 3 18 4 19 5 20 12 21 6 22 10 23 7 24 8 25
REMARK SMILES IDX 11 26 9 28 25 30 26 31 27 32 28 33 29 34 30 35 37 36 31 37
REMARK SMILES IDX 35 38 32 39 33 40 36 41 34 43
REMARK H PARENT 16 8 19 10 22 14 11 27 9 29 36 42 34 44
ROOT
ATOM      1  C   UNL     1     -10.345  -2.562 -22.980  1.00  0.00     0.083 C 
ATOM      2  C   UNL     1     -10.380  -1.466 -24.041  1.00  0.00     0.162 C 
ATOM      3  C   UNL     1      -9.052  -1.394 -24.814  1.00  0.00     0.246 C 
ATOM      4  C   UNL     1      -7.862  -1.181 -23.856  1.00  0.00     0.223 C 
ATOM      5  C   UNL     1      -7.833  -2.258 -22.767  1.00  0.00     0.097 C 
ATOM      6  C   UNL     1      -9.162  -2.369 -22.020  1.00  0.00     0.168 C 
ENDROOT
BRANCH   2   7
ATOM      7  O   UNL     1     -10.623  -0.221 -23.365  1.00  0.00    -0.389 OA
ATOM      8  H   UNL     1     -11.584  -0.189 -23.183  1.00  0.00     0.211 HD
ENDBRANCH   2   7
BRANCH   6   9
ATOM      9  O   UNL     1      -9.346  -1.182 -21.219  1.00  0.00    -0.378 OA
ATOM     10  H   UNL     1      -8.474  -0.974 -20.806  1.00  0.00     0.212 HD
ENDBRANCH   6   9
BRANCH   6  11
ATOM     11  C   UNL     1      -9.106  -3.557 -21.049  1.00  0.00     0.335 C 
ATOM     12  O   UNL     1      -9.222  -3.480 -19.835  1.00  0.00    -0.249 OA
BRANCH  11  13
ATOM     13  O   UNL     1      -8.917  -4.730 -21.707  1.00  0.00    -0.479 OA
ATOM     14  H   UNL     1      -8.599  -5.385 -21.038  1.00  0.00     0.296 HD
ENDBRANCH  11  13
ENDBRANCH   6  11
BRANCH   3  15
ATOM     15  O   UNL     1      -9.107  -0.278 -25.731  1.00  0.00    -0.452 OA
BRANCH  15  16
ATOM     16  C   UNL     1      -8.758  -0.546 -27.010  1.00  0.00     0.331 C 
ATOM     17  O   UNL     1      -9.165  -1.473 -27.688  1.00  0.00    -0.247 OA
BRANCH  16  18
ATOM     18  C   UNL     1      -7.800   0.488 -27.447  1.00  0.00     0.094 C 
ATOM     19  C   UNL     1      -7.455   0.573 -28.741  1.00  0.00     0.016 C 
BRANCH  19  20
ATOM     20  C   UNL     1      -6.515   1.568 -29.277  1.00  0.00    -0.021 A 
ATOM     21  C   UNL     1      -5.820   1.267 -30.460  1.00  0.00     0.058 A 
ATOM     22  C   UNL     1      -6.251   2.782 -28.619  1.00  0.00     0.012 A 
ATOM     23  C   UNL     1      -4.905   2.180 -30.975  1.00  0.00     0.157 A 
ATOM     24  C   UNL     1      -5.330   3.693 -29.144  1.00  0.00     0.051 A 
ATOM     25  C   UNL     1      -4.667   3.384 -30.320  1.00  0.00     0.157 A 
BRANCH  23  26
ATOM     26  O   UNL     1      -4.211   1.937 -32.129  1.00  0.00    -0.504 OA
ATOM     27  H   UNL     1      -3.310   2.290 -32.023  1.00  0.00     0.293 HD
ENDBRANCH  23  26
BRANCH  25  28
ATOM     28  O   UNL     1      -3.768   4.274 -30.832  1.00  0.00    -0.504 OA
ATOM     29  H   UNL     1      -4.309   4.901 -31.351  1.00  0.00     0.293 HD
ENDBRANCH  25  28
ENDBRANCH  19  20
ENDBRANCH  16  18
ENDBRANCH  15  16
ENDBRANCH   3  15
BRANCH   4  30
ATOM     30  O   UNL     1      -6.623  -1.307 -24.594  1.00  0.00    -0.455 OA
BRANCH  30  31
ATOM     31  C   UNL     1      -5.676  -0.365 -24.367  1.00  0.00     0.331 C 
ATOM     32  O   UNL     1      -5.461   0.204 -23.307  1.00  0.00    -0.247 OA
BRANCH  31  33
ATOM     33  C   UNL     1      -4.893  -0.070 -25.584  1.00  0.00     0.094 C 
ATOM     34  C   UNL     1      -4.613  -0.967 -26.542  1.00  0.00     0.016 C 
BRANCH  34  35
ATOM     35  C   UNL     1      -3.846  -0.639 -27.752  1.00  0.00    -0.021 A 
ATOM     36  C   UNL     1      -3.914  -1.507 -28.853  1.00  0.00     0.058 A 
ATOM     37  C   UNL     1      -3.009   0.489 -27.816  1.00  0.00     0.012 A 
ATOM     38  C   UNL     1      -3.177  -1.225 -29.999  1.00  0.00     0.157 A 
ATOM     39  C   UNL     1      -2.270   0.762 -28.971  1.00  0.00     0.051 A 
ATOM     40  C   UNL     1      -2.364  -0.096 -30.053  1.00  0.00     0.157 A 
BRANCH  38  41
ATOM     41  O   UNL     1      -3.217  -2.032 -31.103  1.00  0.00    -0.504 OA
ATOM     42  H   UNL     1      -3.856  -2.745 -30.938  1.00  0.00     0.293 HD
ENDBRANCH  38  41
BRANCH  40  43
ATOM     43  O   UNL     1      -1.643   0.172 -31.180  1.00  0.00    -0.504 OA
ATOM     44  H   UNL     1      -1.999   1.024 -31.504  1.00  0.00     0.293 HD
ENDBRANCH  40  43
ENDBRANCH  34  35
ENDBRANCH  31  33
ENDBRANCH  30  31
ENDBRANCH   4  30
TORSDOF 16
ENDMDL
MODEL 2
REMARK VINA RESULT:      -8.7      2.255      2.967
REMARK SMILES O=C(/C=C/c1ccc(O)c(O)c1)O[C@@H]1[C@H](O)C[C@@](O)(C(=O)O)C[C@H]1OC(=O)/C=C/c1ccc(O)c(O)c1
REMARK SMILES IDX 17 1 15 2 14 3 24 4 23 5 18 6 16 7 19 9 20 11 21 12 22 13
REMARK SMILES IDX 13 15 2 16 1 17 3 18 4 19 5 20 12 21 6 22 10 23 7 24 8 25
REMARK SMILES IDX 11 26 9 28 25 30 26 31 27 32 28 33 29 34 30 35 37 36 31 37
REMARK SMILES IDX 35 38 32 39 33 40 36 41 34 43
REMARK H PARENT 16 8 19 10 22 14 11 27 9 29 36 42 34 44
ROOT
ATOM      1  C   UNL     1     -10.583  -2.741 -22.766  1.00  0.00     0.083 C 
ATOM      2  C   UNL     1     -10.494  -2.177 -24.182  1.00  0.00     0.162 C 
ATOM      3  C   UNL     1      -9.055  -2.249 -24.722  1.00  0.00     0.246 C 
ATOM      4  C   UNL     1      -8.073  -1.515 -23.787  1.00  0.00     0.223 C 
ATOM      5  C   UNL     1      -8.174  -2.050 -22.355  1.00  0.00     0.097 C 
ATOM      6  C   UNL     1      -9.607  -2.025 -21.821  1.00  0.00     0.168 C 
ENDROOT
BRANCH   2   7
ATOM      7  O   UNL     1     -10.931  -0.809 -24.129  1.00  0.00    -0.389 OA
ATOM      8  H   UNL     1     -10.193  -0.298 -23.737  1.00  0.00     0.211 HD
ENDBRANCH   2   7
BRANCH   6   9
ATOM      9  O   UNL     1     -10.005  -0.652 -21.624  1.00  0.00    -0.378 OA
ATOM     10  H   UNL     1      -9.901  -0.193 -22.492  1.00  0.00     0.212 HD
ENDBRANCH   6   9
BRANCH   6  11
ATOM     11  C   UNL     1      -9.653  -2.705 -20.445  1.00  0.00     0.335 C 
ATOM     12  O   UNL     1     -10.167  -2.231 -19.444  1.00  0.00    -0.249 OA
BRANCH  11  13
ATOM     13  O   UNL     1      -9.051  -3.922 -20.471  1.00  0.00    -0.479 OA
ATOM     14  H   UNL     1      -8.088  -3.761 -20.632  1.00  0.00     0.296 HD
ENDBRANCH  11  13
ENDBRANCH   6  11
BRANCH   3  15
ATOM     15  O   UNL     1      -9.013  -1.613 -26.020  1.00  0.00    -0.452 OA
BRANCH  15  16
ATOM     16  C   UNL     1      -9.364  -2.390 -27.071  1.00  0.00     0.331 C 
ATOM     17  O   UNL     1      -9.356  -3.608 -27.099  1.00  0.00    -0.247 OA
BRANCH  16  18
ATOM     18  C   UNL     1      -9.766  -1.502 -28.178  1.00  0.00     0.094 C 
ATOM     19  C   UNL     1      -8.847  -1.078 -29.060  1.00  0.00     0.016 C 
BRANCH  19  20
ATOM     20  C   UNL     1      -9.145  -0.197 -30.199  1.00  0.00    -0.021 A 
ATOM     21  C   UNL     1     -10.173  -0.566 -31.082  1.00  0.00     0.058 A 
ATOM     22  C   UNL     1      -8.402   0.966 -30.461  1.00  0.00     0.012 A 
ATOM     23  C   UNL     1     -10.459   0.236 -32.183  1.00  0.00     0.157 A 
ATOM     24  C   UNL     1      -8.696   1.766 -31.570  1.00  0.00     0.051 A 
ATOM     25  C   UNL     1      -9.725   1.394 -32.420  1.00  0.00     0.157 A 
BRANCH  23  26
ATOM     26  O   UNL     1     -11.457  -0.075 -33.066  1.00  0.00    -0.504 OA
ATOM     27  H   UNL     1     -12.304  -0.060 -32.588  1.00  0.00     0.293 HD
ENDBRANCH  23  26
BRANCH  25  28
ATOM     28  O   UNL     1     -10.011   2.174 -33.503  1.00  0.00    -0.504 OA
ATOM     29  H   UNL     1     -10.213   1.539 -34.218  1.00  0.00     0.293 HD
ENDBRANCH  25  28
ENDBRANCH  19  20
ENDBRANCH  16  18
ENDBRANCH  15  16
ENDBRANCH   3  15
BRANCH   4  30
ATOM     30  O   UNL     1      -6.716  -1.764 -24.225  1.00  0.00    -0.455 OA
BRANCH  30  31
ATOM     31  C   UNL     1      -5.976  -0.683 -24.568  1.00  0.00     0.331 C 
ATOM     32  O   UNL     1      -5.862   0.351 -23.927  1.00  0.00    -0.247 OA
BRANCH  31  33
ATOM     33  C   UNL     1      -5.288  -0.877 -25.862  1.00  0.00     0.094 C 
ATOM     34  C   UNL     1      -5.529  -0.152 -26.966  1.00  0.00     0.016 C 
BRANCH  34  35
ATOM     35  C   UNL     1      -4.815  -0.357 -28.234  1.00  0.00    -0.021 A 
ATOM     36  C   UNL     1      -4.816   0.676 -29.184  1.00  0.00     0.058 A 
ATOM     37  C   UNL     1      -4.179  -1.572 -28.539  1.00  0.00     0.012 A 
ATOM     38  C   UNL     1      -4.165   0.493 -30.400  1.00  0.00     0.157 A 
ATOM     39  C   UNL     1      -3.529  -1.748 -29.764  1.00  0.00     0.051 A 
ATOM     40  C   UNL     1      -3.526  -0.712 -30.683  1.00  0.00     0.157 A 
BRANCH  38  41
ATOM     41  O   UNL     1      -4.126   1.470 -31.356  1.00  0.00    -0.504 OA
ATOM     42  H   UNL     1      -3.524   1.184 -32.064  1.00  0.00     0.293 HD
ENDBRANCH  38  41
BRANCH  40  43
ATOM     43  O   UNL     1      -2.891  -0.883 -31.878  1.00  0.00    -0.504 OA
ATOM     44  H   UNL     1      -3.332  -1.658 -32.283  1.00  0.00     0.293 HD
ENDBRANCH  40  43
ENDBRANCH  34  35
ENDBRANCH  31  33
ENDBRANCH  30  31
ENDBRANCH   4  30
TORSDOF 16
ENDMDL
MODEL 3
REMARK VINA RESULT:      -8.7      2.590      3.794
REMARK SMILES O=C(/C=C/c1ccc(O)c(O)c1)O[C@@H]1[C@H](O)C[C@@](O)(C(=O)O)C[C@H]1OC(=O)/C=C/c1ccc(O)c(O)c1
REMARK SMILES IDX 17 1 15 2 14 3 24 4 23 5 18 6 16 7 19 9 20 11 21 12 22 13
REMARK SMILES IDX 13 15 2 16 1 17 3 18 4 19 5 20 12 21 6 22 10 23 7 24 8 25
REMARK SMILES IDX 11 26 9 28 25 30 26 31 27 32 28 33 29 34 30 35 37 36 31 37
REMARK SMILES IDX 35 38 32 39 33 40 36 41 34 43
REMARK H PARENT 16 8 19 10 22 14 11 27 9 29 36 42 34 44
ROOT
ATOM      1  C   UNL     1     -11.679  -3.533 -24.983  1.00  0.00     0.083 C 
ATOM      2  C   UNL     1     -10.520  -2.546 -24.870  1.00  0.00     0.162 C 
ATOM      3  C   UNL     1     -10.073  -2.047 -26.254  1.00  0.00     0.246 C 
ATOM      4  C   UNL     1      -9.690  -3.225 -27.173  1.00  0.00     0.223 C 
ATOM      5  C   UNL     1     -10.833  -4.240 -27.271  1.00  0.00     0.097 C 
ATOM      6  C   UNL     1     -11.317  -4.711 -25.900  1.00  0.00     0.168 C 
ENDROOT
BRANCH   2   7
ATOM      7  O   UNL     1      -9.436  -3.229 -24.219  1.00  0.00    -0.389 OA
ATOM      8  H   UNL     1      -8.733  -2.561 -24.082  1.00  0.00     0.211 HD
ENDBRANCH   2   7
BRANCH   6   9
ATOM      9  O   UNL     1     -10.286  -5.524 -25.298  1.00  0.00    -0.378 OA
ATOM     10  H   UNL     1      -9.774  -5.933 -26.036  1.00  0.00     0.212 HD
ENDBRANCH   6   9
BRANCH   6  11
ATOM     11  C   UNL     1     -12.550  -5.610 -26.072  1.00  0.00     0.335 C 
ATOM     12  O   UNL     1     -13.403  -5.803 -25.220  1.00  0.00    -0.249 OA
BRANCH  11  13
ATOM     13  O   UNL     1     -12.589  -6.169 -27.309  1.00  0.00    -0.479 OA
ATOM     14  H   UNL     1     -13.541  -6.207 -27.575  1.00  0.00     0.296 HD
ENDBRANCH  11  13
ENDBRANCH   6  11
BRANCH   3  15
ATOM     15  O   UNL     1      -8.915  -1.198 -26.091  1.00  0.00    -0.452 OA
BRANCH  15  16
ATOM     16  C   UNL     1      -9.169   0.112 -25.867  1.00  0.00     0.331 C 
ATOM     17  O   UNL     1     -10.067   0.563 -25.178  1.00  0.00    -0.247 OA
BRANCH  16  18
ATOM     18  C   UNL     1      -8.161   0.903 -26.598  1.00  0.00     0.094 C 
ATOM     19  C   UNL     1      -7.928   0.650 -27.895  1.00  0.00     0.016 C 
BRANCH  19  20
ATOM     20  C   UNL     1      -6.951   1.383 -28.713  1.00  0.00    -0.021 A 
ATOM     21  C   UNL     1      -5.801   1.894 -28.089  1.00  0.00     0.058 A 
ATOM     22  C   UNL     1      -7.155   1.633 -30.081  1.00  0.00     0.012 A 
ATOM     23  C   UNL     1      -4.872   2.614 -28.834  1.00  0.00     0.157 A 
ATOM     24  C   UNL     1      -6.216   2.357 -30.822  1.00  0.00     0.051 A 
ATOM     25  C   UNL     1      -5.081   2.839 -30.192  1.00  0.00     0.157 A 
BRANCH  23  26
ATOM     26  O   UNL     1      -3.733   3.124 -28.275  1.00  0.00    -0.504 OA
ATOM     27  H   UNL     1      -3.814   4.093 -28.247  1.00  0.00     0.293 HD
ENDBRANCH  23  26
BRANCH  25  28
ATOM     28  O   UNL     1      -4.166   3.546 -30.915  1.00  0.00    -0.504 OA
ATOM     29  H   UNL     1      -3.944   4.313 -30.351  1.00  0.00     0.293 HD
ENDBRANCH  25  28
ENDBRANCH  19  20
ENDBRANCH  16  18
ENDBRANCH  15  16
ENDBRANCH   3  15
BRANCH   4  30
ATOM     30  O   UNL     1      -9.458  -2.732 -28.514  1.00  0.00    -0.455 OA
BRANCH  30  31
ATOM     31  C   UNL     1      -8.566  -3.415 -29.271  1.00  0.00     0.331 C 
ATOM     32  O   UNL     1      -8.705  -4.547 -29.711  1.00  0.00    -0.247 OA
BRANCH  31  33
ATOM     33  C   UNL     1      -7.343  -2.626 -29.522  1.00  0.00     0.094 C 
ATOM     34  C   UNL     1      -6.340  -2.480 -28.642  1.00  0.00     0.016 C 
BRANCH  34  35
ATOM     35  C   UNL     1      -5.125  -1.703 -28.928  1.00  0.00    -0.021 A 
ATOM     36  C   UNL     1      -4.852  -1.339 -30.256  1.00  0.00     0.058 A 
ATOM     37  C   UNL     1      -4.208  -1.362 -27.918  1.00  0.00     0.012 A 
ATOM     38  C   UNL     1      -3.695  -0.623 -30.549  1.00  0.00     0.157 A 
ATOM     39  C   UNL     1      -3.048  -0.645 -28.223  1.00  0.00     0.051 A 
ATOM     40  C   UNL     1      -2.804  -0.279 -29.536  1.00  0.00     0.157 A 
BRANCH  38  41
ATOM     41  O   UNL     1      -3.388  -0.234 -31.823  1.00  0.00    -0.504 OA
ATOM     42  H   UNL     1      -2.824  -0.917 -32.225  1.00  0.00     0.293 HD
ENDBRANCH  38  41
BRANCH  40  43
ATOM     43  O   UNL     1      -1.671   0.421 -29.833  1.00  0.00    -0.504 OA
ATOM     44  H   UNL     1      -0.964  -0.254 -29.862  1.00  0.00     0.293 HD
ENDBRANCH  40  43
ENDBRANCH  34  35
ENDBRANCH  31  33
ENDBRANCH  30  31
ENDBRANCH   4  30
TORSDOF 16
ENDMDL
MODEL 4
REMARK VINA RESULT:      -8.7      1.964      4.256
REMARK SMILES O=C(/C=C/c1ccc(O)c(O)c1)O[C@@H]1[C@H](O)C[C@@](O)(C(=O)O)C[C@H]1OC(=O)/C=C/c1ccc(O)c(O)c1
REMARK SMILES IDX 17 1 15 2 14 3 24 4 23 5 18 6 16 7 19 9 20 11 21 12 22 13
REMARK SMILES IDX 13 15 2 16 1 17 3 18 4 19 5 20 12 21 6 22 10 23 7 24 8 25
REMARK SMILES IDX 11 26 9 28 25 30 26 31 27 32 28 33 29 34 30 35 37 36 31 37
REMARK SMILES IDX 35 38 32 39 33 40 36 41 34 43
REMARK H PARENT 16 8 19 10 22 14 11 27 9 29 36 42 34 44
ROOT
ATOM      1  C   UNL     1      -8.446  -2.125 -20.970  1.00  0.00     0.083 C 
ATOM      2  C   UNL     1      -7.577  -2.425 -22.188  1.00  0.00     0.162 C 
ATOM      3  C   UNL     1      -7.259  -1.144 -22.978  1.00  0.00     0.246 C 
ATOM      4  C   UNL     1      -8.552  -0.419 -23.405  1.00  0.00     0.223 C 
ATOM      5  C   UNL     1      -9.450  -0.139 -22.195  1.00  0.00     0.097 C 
ATOM      6  C   UNL     1      -9.737  -1.398 -21.376  1.00  0.00     0.168 C 
ENDROOT
BRANCH   2   7
ATOM      7  O   UNL     1      -8.301  -3.348 -23.017  1.00  0.00    -0.389 OA
ATOM      8  H   UNL     1      -8.079  -3.120 -23.943  1.00  0.00     0.211 HD
ENDBRANCH   2   7
BRANCH   6   9
ATOM      9  O   UNL     1     -10.590  -2.270 -22.147  1.00  0.00    -0.378 OA
ATOM     10  H   UNL     1     -10.296  -2.204 -23.087  1.00  0.00     0.212 HD
ENDBRANCH   6   9
BRANCH   6  11
ATOM     11  C   UNL     1     -10.517  -1.017 -20.109  1.00  0.00     0.335 C 
ATOM     12  O   UNL     1     -10.543  -1.670 -19.077  1.00  0.00    -0.249 OA
BRANCH  11  13
ATOM     13  O   UNL     1     -11.181   0.156 -20.267  1.00  0.00    -0.479 OA
ATOM     14  H   UNL     1     -10.506   0.877 -20.212  1.00  0.00     0.296 HD
ENDBRANCH  11  13
ENDBRANCH   6  11
BRANCH   3  15
ATOM     15  O   UNL     1      -6.522  -1.502 -24.168  1.00  0.00    -0.452 OA
BRANCH  15  16
ATOM     16  C   UNL     1      -5.455  -0.721 -24.460  1.00  0.00     0.331 C 
ATOM     17  O   UNL     1      -4.961   0.122 -23.733  1.00  0.00    -0.247 OA
BRANCH  16  18
ATOM     18  C   UNL     1      -4.988  -1.077 -25.813  1.00  0.00     0.094 C 
ATOM     19  C   UNL     1      -4.724  -0.108 -26.703  1.00  0.00     0.016 C 
BRANCH  19  20
ATOM     20  C   UNL     1      -4.250  -0.356 -28.072  1.00  0.00    -0.021 A 
ATOM     21  C   UNL     1      -4.215   0.719 -28.976  1.00  0.00     0.058 A 
ATOM     22  C   UNL     1      -3.884  -1.638 -28.519  1.00  0.00     0.012 A 
ATOM     23  C   UNL     1      -3.795   0.507 -30.286  1.00  0.00     0.157 A 
ATOM     24  C   UNL     1      -3.464  -1.842 -29.837  1.00  0.00     0.051 A 
ATOM     25  C   UNL     1      -3.421  -0.766 -30.708  1.00  0.00     0.157 A 
BRANCH  23  26
ATOM     26  O   UNL     1      -3.734   1.522 -31.201  1.00  0.00    -0.504 OA
ATOM     27  H   UNL     1      -4.039   1.179 -32.059  1.00  0.00     0.293 HD
ENDBRANCH  23  26
BRANCH  25  28
ATOM     28  O   UNL     1      -3.012  -0.965 -31.995  1.00  0.00    -0.504 OA
ATOM     29  H   UNL     1      -3.822  -1.228 -32.473  1.00  0.00     0.293 HD
ENDBRANCH  25  28
ENDBRANCH  19  20
ENDBRANCH  16  18
ENDBRANCH  15  16
ENDBRANCH   3  15
BRANCH   4  30
ATOM     30  O   UNL     1      -8.216   0.868 -23.976  1.00  0.00    -0.455 OA
BRANCH  30  31
ATOM     31  C   UNL     1      -8.827   1.200 -25.138  1.00  0.00     0.331 C 
ATOM     32  O   UNL     1      -9.382   2.259 -25.388  1.00  0.00    -0.247 OA
BRANCH  31  33
ATOM     33  C   UNL     1      -8.764   0.101 -26.124  1.00  0.00     0.094 C 
ATOM     34  C   UNL     1      -8.118   0.172 -27.299  1.00  0.00     0.016 C 
BRANCH  34  35
ATOM     35  C   UNL     1      -8.057  -0.945 -28.252  1.00  0.00    -0.021 A 
ATOM     36  C   UNL     1      -8.410  -2.230 -27.811  1.00  0.00     0.058 A 
ATOM     37  C   UNL     1      -7.606  -0.769 -29.572  1.00  0.00     0.012 A 
ATOM     38  C   UNL     1      -8.337  -3.304 -28.694  1.00  0.00     0.157 A 
ATOM     39  C   UNL     1      -7.534  -1.854 -30.450  1.00  0.00     0.051 A 
ATOM     40  C   UNL     1      -7.903  -3.112 -30.002  1.00  0.00     0.157 A 
BRANCH  38  41
ATOM     41  O   UNL     1      -8.680  -4.573 -28.319  1.00  0.00    -0.504 OA
ATOM     42  H   UNL     1      -9.524  -4.802 -28.746  1.00  0.00     0.293 HD
ENDBRANCH  38  41
BRANCH  40  43
ATOM     43  O   UNL     1      -7.832  -4.171 -30.860  1.00  0.00    -0.504 OA
ATOM     44  H   UNL     1      -8.715  -4.590 -30.808  1.00  0.00     0.293 HD
ENDBRANCH  40  43
ENDBRANCH  34  35
ENDBRANCH  31  33
ENDBRANCH  30  31
ENDBRANCH   4  30
TORSDOF 16
ENDMDL
MODEL 5
REMARK VINA RESULT:      -8.7      1.607      4.116
REMARK SMILES O=C(/C=C/c1ccc(O)c(O)c1)O[C@@H]1[C@H](O)C[C@@](O)(C(=O)O)C[C@H]1OC(=O)/C=C/c1ccc(O)c(O)c1
REMARK SMILES IDX 17 1 15 2 14 3 24 4 23 5 18 6 16 7 19 9 20 11 21 12 22 13
REMARK SMILES IDX 13 15 2 16 1 17 3 18 4 19 5 20 12 21 6 22 10 23 7 24 8 25
REMARK SMILES IDX 11 26 9 28 25 30 26 31 27 32 28 33 29 34 30 35 37 36 31 37
REMARK SMILES IDX 35 38 32 39 33 40 36 41 34 43
REMARK H PARENT 16 8 19 10 22 14 11 27 9 29 36 42 34 44
ROOT
ATOM      1  C   UNL     1      -8.268  -1.886 -20.642  1.00  0.00     0.083 C 
ATOM      2  C   UNL     1      -7.358  -2.270 -21.806  1.00  0.00     0.162 C 
ATOM      3  C   UNL     1      -7.557  -1.328 -23.005  1.00  0.00     0.246 C 
ATOM      4  C   UNL     1      -9.031  -1.308 -23.458  1.00  0.00     0.223 C 
ATOM      5  C   UNL     1      -9.959  -0.954 -22.291  1.00  0.00     0.097 C 
ATOM      6  C   UNL     1      -9.741  -1.856 -21.076  1.00  0.00     0.168 C 
ENDROOT
BRANCH   2   7
ATOM      7  O   UNL     1      -7.684  -3.619 -22.180  1.00  0.00    -0.389 OA
ATOM      8  H   UNL     1      -8.101  -3.567 -23.064  1.00  0.00     0.211 HD
ENDBRANCH   2   7
BRANCH   6   9
ATOM      9  O   UNL     1     -10.205  -3.185 -21.394  1.00  0.00    -0.378 OA
ATOM     10  H   UNL     1      -9.427  -3.788 -21.319  1.00  0.00     0.212 HD
ENDBRANCH   6   9
BRANCH   6  11
ATOM     11  C   UNL     1     -10.598  -1.353 -19.905  1.00  0.00     0.335 C 
ATOM     12  O   UNL     1     -10.748  -1.936 -18.843  1.00  0.00    -0.249 OA
BRANCH  11  13
ATOM     13  O   UNL     1     -11.175  -0.157 -20.188  1.00  0.00    -0.479 OA
ATOM     14  H   UNL     1     -10.501   0.377 -20.677  1.00  0.00     0.296 HD
ENDBRANCH  11  13
ENDBRANCH   6  11
BRANCH   3  15
ATOM     15  O   UNL     1      -6.747  -1.799 -24.106  1.00  0.00    -0.452 OA
BRANCH  15  16
ATOM     16  C   UNL     1      -5.716  -1.000 -24.465  1.00  0.00     0.331 C 
ATOM     17  O   UNL     1      -5.148  -0.193 -23.751  1.00  0.00    -0.247 OA
BRANCH  16  18
ATOM     18  C   UNL     1      -5.392  -1.283 -25.877  1.00  0.00     0.094 C 
ATOM     19  C   UNL     1      -4.482  -0.531 -26.515  1.00  0.00     0.016 C 
BRANCH  19  20
ATOM     20  C   UNL     1      -4.086  -0.733 -27.916  1.00  0.00    -0.021 A 
ATOM     21  C   UNL     1      -2.993  -0.006 -28.416  1.00  0.00     0.058 A 
ATOM     22  C   UNL     1      -4.796  -1.583 -28.781  1.00  0.00     0.012 A 
ATOM     23  C   UNL     1      -2.612  -0.159 -29.747  1.00  0.00     0.157 A 
ATOM     24  C   UNL     1      -4.407  -1.730 -30.116  1.00  0.00     0.051 A 
ATOM     25  C   UNL     1      -3.316  -1.018 -30.586  1.00  0.00     0.157 A 
BRANCH  23  26
ATOM     26  O   UNL     1      -1.550   0.519 -30.278  1.00  0.00    -0.504 OA
ATOM     27  H   UNL     1      -0.975   0.808 -29.548  1.00  0.00     0.293 HD
ENDBRANCH  23  26
BRANCH  25  28
ATOM     28  O   UNL     1      -2.937  -1.161 -31.889  1.00  0.00    -0.504 OA
ATOM     29  H   UNL     1      -3.591  -1.780 -32.270  1.00  0.00     0.293 HD
ENDBRANCH  25  28
ENDBRANCH  19  20
ENDBRANCH  16  18
ENDBRANCH  15  16
ENDBRANCH   3  15
BRANCH   4  30
ATOM     30  O   UNL     1      -9.213  -0.277 -24.458  1.00  0.00    -0.455 OA
BRANCH  30  31
ATOM     31  C   UNL     1     -10.137  -0.513 -25.419  1.00  0.00     0.331 C 
ATOM     32  O   UNL     1     -11.282  -0.904 -25.243  1.00  0.00    -0.247 OA
BRANCH  31  33
ATOM     33  C   UNL     1      -9.604  -0.246 -26.770  1.00  0.00     0.094 C 
ATOM     34  C   UNL     1      -8.363   0.202 -27.022  1.00  0.00     0.016 C 
BRANCH  34  35
ATOM     35  C   UNL     1      -7.854   0.440 -28.379  1.00  0.00    -0.021 A 
ATOM     36  C   UNL     1      -8.241  -0.431 -29.409  1.00  0.00     0.058 A 
ATOM     37  C   UNL     1      -6.953   1.482 -28.661  1.00  0.00     0.012 A 
ATOM     38  C   UNL     1      -7.750  -0.235 -30.697  1.00  0.00     0.157 A 
ATOM     39  C   UNL     1      -6.464   1.670 -29.957  1.00  0.00     0.051 A 
ATOM     40  C   UNL     1      -6.870   0.810 -30.964  1.00  0.00     0.157 A 
BRANCH  38  41
ATOM     41  O   UNL     1      -8.104  -1.048 -31.738  1.00  0.00    -0.504 OA
ATOM     42  H   UNL     1      -9.053  -0.924 -31.915  1.00  0.00     0.293 HD
ENDBRANCH  38  41
BRANCH  40  43
ATOM     43  O   UNL     1      -6.393   0.994 -32.229  1.00  0.00    -0.504 OA
ATOM     44  H   UNL     1      -7.030   0.524 -32.804  1.00  0.00     0.293 HD
ENDBRANCH  40  43
ENDBRANCH  34  35
ENDBRANCH  31  33
ENDBRANCH  30  31
ENDBRANCH   4  30
TORSDOF 16
ENDMDL
MODEL 6
REMARK VINA RESULT:      -8.6      2.031      2.786
REMARK SMILES O=C(/C=C/c1ccc(O)c(O)c1)O[C@@H]1[C@H](O)C[C@@](O)(C(=O)O)C[C@H]1OC(=O)/C=C/c1ccc(O)c(O)c1
REMARK SMILES IDX 17 1 15 2 14 3 24 4 23 5 18 6 16 7 19 9 20 11 21 12 22 13
REMARK SMILES IDX 13 15 2 16 1 17 3 18 4 19 5 20 12 21 6 22 10 23 7 24 8 25
REMARK SMILES IDX 11 26 9 28 25 30 26 31 27 32 28 33 29 34 30 35 37 36 31 37
REMARK SMILES IDX 35 38 32 39 33 40 36 41 34 43
REMARK H PARENT 16 8 19 10 22 14 11 27 9 29 36 42 34 44
ROOT
ATOM      1  C   UNL     1     -10.794  -3.165 -22.827  1.00  0.00     0.083 C 
ATOM      2  C   UNL     1     -10.914  -2.654 -24.261  1.00  0.00     0.162 C 
ATOM      3  C   UNL     1      -9.530  -2.487 -24.912  1.00  0.00     0.246 C 
ATOM      4  C   UNL     1      -8.633  -1.549 -24.078  1.00  0.00     0.223 C 
ATOM      5  C   UNL     1      -8.529  -2.034 -22.628  1.00  0.00     0.097 C 
ATOM      6  C   UNL     1      -9.899  -2.246 -21.983  1.00  0.00     0.168 C 
ENDROOT
BRANCH   2   7
ATOM      7  O   UNL     1     -11.590  -1.387 -24.211  1.00  0.00    -0.389 OA
ATOM      8  H   UNL     1     -12.061  -1.360 -23.353  1.00  0.00     0.211 HD
ENDBRANCH   2   7
BRANCH   6   9
ATOM      9  O   UNL     1     -10.527  -0.960 -21.793  1.00  0.00    -0.378 OA
ATOM     10  H   UNL     1     -10.828  -0.651 -22.681  1.00  0.00     0.212 HD
ENDBRANCH   6   9
BRANCH   6  11
ATOM     11  C   UNL     1      -9.719  -2.865 -20.590  1.00  0.00     0.335 C 
ATOM     12  O   UNL     1     -10.115  -2.371 -19.545  1.00  0.00    -0.249 OA
BRANCH  11  13
ATOM     13  O   UNL     1      -9.062  -4.051 -20.653  1.00  0.00    -0.479 OA
ATOM     14  H   UNL     1      -8.096  -3.842 -20.684  1.00  0.00     0.296 HD
ENDBRANCH  11  13
ENDBRANCH   6  11
BRANCH   3  15
ATOM     15  O   UNL     1      -9.701  -1.908 -26.225  1.00  0.00    -0.452 OA
BRANCH  15  16
ATOM     16  C   UNL     1      -9.599  -2.766 -27.267  1.00  0.00     0.331 C 
ATOM     17  O   UNL     1      -9.559  -3.982 -27.197  1.00  0.00    -0.247 OA
BRANCH  16  18
ATOM     18  C   UNL     1      -9.550  -1.970 -28.508  1.00  0.00     0.094 C 
ATOM     19  C   UNL     1      -8.523  -2.122 -29.358  1.00  0.00     0.016 C 
BRANCH  19  20
ATOM     20  C   UNL     1      -8.384  -1.383 -30.621  1.00  0.00    -0.021 A 
ATOM     21  C   UNL     1      -7.281  -0.528 -30.781  1.00  0.00     0.058 A 
ATOM     22  C   UNL     1      -9.343  -1.461 -31.645  1.00  0.00     0.012 A 
ATOM     23  C   UNL     1      -7.139   0.204 -31.957  1.00  0.00     0.157 A 
ATOM     24  C   UNL     1      -9.193  -0.723 -32.823  1.00  0.00     0.051 A 
ATOM     25  C   UNL     1      -8.089   0.102 -32.968  1.00  0.00     0.157 A 
BRANCH  23  26
ATOM     26  O   UNL     1      -6.078   1.042 -32.164  1.00  0.00    -0.504 OA
ATOM     27  H   UNL     1      -5.370   0.798 -31.543  1.00  0.00     0.293 HD
ENDBRANCH  23  26
BRANCH  25  28
ATOM     28  O   UNL     1      -7.943   0.824 -34.117  1.00  0.00    -0.504 OA
ATOM     29  H   UNL     1      -8.206   0.209 -34.830  1.00  0.00     0.293 HD
ENDBRANCH  25  28
ENDBRANCH  19  20
ENDBRANCH  16  18
ENDBRANCH  15  16
ENDBRANCH   3  15
BRANCH   4  30
ATOM     30  O   UNL     1      -7.289  -1.567 -24.616  1.00  0.00    -0.455 OA
BRANCH  30  31
ATOM     31  C   UNL     1      -6.722  -0.366 -24.884  1.00  0.00     0.331 C 
ATOM     32  O   UNL     1      -6.682   0.599 -24.136  1.00  0.00    -0.247 OA
BRANCH  31  33
ATOM     33  C   UNL     1      -6.133  -0.328 -26.239  1.00  0.00     0.094 C 
ATOM     34  C   UNL     1      -4.923  -0.819 -26.554  1.00  0.00     0.016 C 
BRANCH  34  35
ATOM     35  C   UNL     1      -4.371  -0.783 -27.915  1.00  0.00    -0.021 A 
ATOM     36  C   UNL     1      -4.284   0.451 -28.577  1.00  0.00     0.058 A 
ATOM     37  C   UNL     1      -3.979  -1.954 -28.587  1.00  0.00     0.012 A 
ATOM     38  C   UNL     1      -3.784   0.502 -29.876  1.00  0.00     0.157 A 
ATOM     39  C   UNL     1      -3.481  -1.893 -29.892  1.00  0.00     0.051 A 
ATOM     40  C   UNL     1      -3.386  -0.664 -30.523  1.00  0.00     0.157 A 
BRANCH  38  41
ATOM     41  O   UNL     1      -3.667   1.679 -30.561  1.00  0.00    -0.504 OA
ATOM     42  H   UNL     1      -3.170   1.510 -31.379  1.00  0.00     0.293 HD
ENDBRANCH  38  41
BRANCH  40  43
ATOM     43  O   UNL     1      -2.899  -0.606 -31.797  1.00  0.00    -0.504 OA
ATOM     44  H   UNL     1      -3.593  -0.139 -32.305  1.00  0.00     0.293 HD
ENDBRANCH  40  43
ENDBRANCH  34  35
ENDBRANCH  31  33
ENDBRANCH  30  31
ENDBRANCH   4  30
TORSDOF 16
ENDMDL
MODEL 7
REMARK VINA RESULT:      -8.6      2.948      4.140
REMARK SMILES O=C(/C=C/c1ccc(O)c(O)c1)O[C@@H]1[C@H](O)C[C@@](O)(C(=O)O)C[C@H]1OC(=O)/C=C/c1ccc(O)c(O)c1
REMARK SMILES IDX 17 1 15 2 14 3 24 4 23 5 18 6 16 7 19 9 20 11 21 12 22 13
REMARK SMILES IDX 13 15 2 16 1 17 3 18 4 19 5 20 12 21 6 22 10 23 7 24 8 25
REMARK SMILES IDX 11 26 9 28 25 30 26 31 27 32 28 33 29 34 30 35 37 36 31 37
REMARK SMILES IDX 35 38 32 39 33 40 36 41 34 43
REMARK H PARENT 16 8 19 10 22 14 11 27 9 29 36 42 34 44
ROOT
ATOM      1  C   UNL     1     -11.668  -3.385 -25.049  1.00  0.00     0.083 C 
ATOM      2  C   UNL     1     -10.480  -2.427 -25.029  1.00  0.00     0.162 C 
ATOM      3  C   UNL     1     -10.024  -2.070 -26.454  1.00  0.00     0.246 C 
ATOM      4  C   UNL     1      -9.680  -3.338 -27.261  1.00  0.00     0.223 C 
ATOM      5  C   UNL     1     -10.854  -4.323 -27.264  1.00  0.00     0.097 C 
ATOM      6  C   UNL     1     -11.345  -4.652 -25.854  1.00  0.00     0.168 C 
ENDROOT
BRANCH   2   7
ATOM      7  O   UNL     1      -9.413  -3.079 -24.320  1.00  0.00    -0.389 OA
ATOM      8  H   UNL     1      -9.833  -3.589 -23.598  1.00  0.00     0.211 HD
ENDBRANCH   2   7
BRANCH   6   9
ATOM      9  O   UNL     1     -10.337  -5.437 -25.183  1.00  0.00    -0.378 OA
ATOM     10  H   UNL     1     -10.264  -6.293 -25.670  1.00  0.00     0.212 HD
ENDBRANCH   6   9
BRANCH   6  11
ATOM     11  C   UNL     1     -12.605  -5.525 -25.941  1.00  0.00     0.335 C 
ATOM     12  O   UNL     1     -13.469  -5.601 -25.081  1.00  0.00    -0.249 OA
BRANCH  11  13
ATOM     13  O   UNL     1     -12.655  -6.211 -27.112  1.00  0.00    -0.479 OA
ATOM     14  H   UNL     1     -12.538  -5.548 -27.837  1.00  0.00     0.296 HD
ENDBRANCH  11  13
ENDBRANCH   6  11
BRANCH   3  15
ATOM     15  O   UNL     1      -8.840  -1.245 -26.371  1.00  0.00    -0.452 OA
BRANCH  15  16
ATOM     16  C   UNL     1      -9.005   0.059 -26.696  1.00  0.00     0.331 C 
ATOM     17  O   UNL     1      -9.155   0.981 -25.915  1.00  0.00    -0.247 OA
BRANCH  16  18
ATOM     18  C   UNL     1      -8.961   0.170 -28.166  1.00  0.00     0.094 C 
ATOM     19  C   UNL     1      -7.847   0.614 -28.769  1.00  0.00     0.016 C 
BRANCH  19  20
ATOM     20  C   UNL     1      -7.700   0.756 -30.224  1.00  0.00    -0.021 A 
ATOM     21  C   UNL     1      -8.545   0.009 -31.061  1.00  0.00     0.058 A 
ATOM     22  C   UNL     1      -6.710   1.569 -30.802  1.00  0.00     0.012 A 
ATOM     23  C   UNL     1      -8.410   0.106 -32.443  1.00  0.00     0.157 A 
ATOM     24  C   UNL     1      -6.581   1.660 -32.191  1.00  0.00     0.051 A 
ATOM     25  C   UNL     1      -7.436   0.928 -33.000  1.00  0.00     0.157 A 
BRANCH  23  26
ATOM     26  O   UNL     1      -9.216  -0.594 -33.300  1.00  0.00    -0.504 OA
ATOM     27  H   UNL     1      -9.733  -1.232 -32.780  1.00  0.00     0.293 HD
ENDBRANCH  23  26
BRANCH  25  28
ATOM     28  O   UNL     1      -7.309   1.016 -34.356  1.00  0.00    -0.504 OA
ATOM     29  H   UNL     1      -8.222   1.140 -34.681  1.00  0.00     0.293 HD
ENDBRANCH  25  28
ENDBRANCH  19  20
ENDBRANCH  16  18
ENDBRANCH  15  16
ENDBRANCH   3  15
BRANCH   4  30
ATOM     30  O   UNL     1      -9.440  -2.978 -28.643  1.00  0.00    -0.455 OA
BRANCH  30  31
ATOM     31  C   UNL     1      -8.516  -3.706 -29.313  1.00  0.00     0.331 C 
ATOM     32  O   UNL     1      -8.644  -4.856 -29.705  1.00  0.00    -0.247 OA
BRANCH  31  33
ATOM     33  C   UNL     1      -7.270  -2.942 -29.532  1.00  0.00     0.094 C 
ATOM     34  C   UNL     1      -6.448  -2.534 -28.552  1.00  0.00     0.016 C 
BRANCH  34  35
ATOM     35  C   UNL     1      -5.204  -1.792 -28.801  1.00  0.00    -0.021 A 
ATOM     36  C   UNL     1      -4.757  -1.649 -30.124  1.00  0.00     0.058 A 
ATOM     37  C   UNL     1      -4.429  -1.269 -27.752  1.00  0.00     0.012 A 
ATOM     38  C   UNL     1      -3.569  -0.968 -30.378  1.00  0.00     0.157 A 
ATOM     39  C   UNL     1      -3.237  -0.589 -28.017  1.00  0.00     0.051 A 
ATOM     40  C   UNL     1      -2.820  -0.443 -29.330  1.00  0.00     0.157 A 
BRANCH  38  41
ATOM     41  O   UNL     1      -3.095  -0.791 -31.648  1.00  0.00    -0.504 OA
ATOM     42  H   UNL     1      -3.243   0.136 -31.905  1.00  0.00     0.293 HD
ENDBRANCH  38  41
BRANCH  40  43
ATOM     43  O   UNL     1      -1.656   0.221 -29.588  1.00  0.00    -0.504 OA
ATOM     44  H   UNL     1      -1.026  -0.480 -29.852  1.00  0.00     0.293 HD
ENDBRANCH  40  43
ENDBRANCH  34  35
ENDBRANCH  31  33
ENDBRANCH  30  31
ENDBRANCH   4  30
TORSDOF 16
ENDMDL
MODEL 8
REMARK VINA RESULT:      -8.6      2.309      3.195
REMARK SMILES O=C(/C=C/c1ccc(O)c(O)c1)O[C@@H]1[C@H](O)C[C@@](O)(C(=O)O)C[C@H]1OC(=O)/C=C/c1ccc(O)c(O)c1
REMARK SMILES IDX 17 1 15 2 14 3 24 4 23 5 18 6 16 7 19 9 20 11 21 12 22 13
REMARK SMILES IDX 13 15 2 16 1 17 3 18 4 19 5 20 12 21 6 22 10 23 7 24 8 25
REMARK SMILES IDX 11 26 9 28 25 30 26 31 27 32 28 33 29 34 30 35 37 36 31 37
REMARK SMILES IDX 35 38 32 39 33 40 36 41 34 43
REMARK H PARENT 16 8 19 10 22 14 11 27 9 29 36 42 34 44
ROOT
ATOM      1  C   UNL     1     -10.481  -3.436 -22.834  1.00  0.00     0.083 C 
ATOM      2  C   UNL     1     -11.014  -3.276 -24.256  1.00  0.00     0.162 C 
ATOM      3  C   UNL     1      -9.905  -2.824 -25.221  1.00  0.00     0.246 C 
ATOM      4  C   UNL     1      -9.249  -1.514 -24.740  1.00  0.00     0.223 C 
ATOM      5  C   UNL     1      -8.737  -1.651 -23.303  1.00  0.00     0.097 C 
ATOM      6  C   UNL     1      -9.819  -2.142 -22.341  1.00  0.00     0.168 C 
ENDROOT
BRANCH   2   7
ATOM      7  O   UNL     1     -12.061  -2.291 -24.214  1.00  0.00    -0.389 OA
ATOM      8  H   UNL     1     -12.744  -2.641 -23.606  1.00  0.00     0.211 HD
ENDBRANCH   2   7
BRANCH   6   9
ATOM      9  O   UNL     1     -10.802  -1.098 -22.177  1.00  0.00    -0.378 OA
ATOM     10  H   UNL     1     -11.059  -1.089 -21.224  1.00  0.00     0.212 HD
ENDBRANCH   6   9
BRANCH   6  11
ATOM     11  C   UNL     1      -9.199  -2.392 -20.958  1.00  0.00     0.335 C 
ATOM     12  O   UNL     1      -8.297  -1.735 -20.463  1.00  0.00    -0.249 OA
BRANCH  11  13
ATOM     13  O   UNL     1      -9.787  -3.443 -20.332  1.00  0.00    -0.479 OA
ATOM     14  H   UNL     1      -9.722  -3.270 -19.360  1.00  0.00     0.296 HD
ENDBRANCH  11  13
ENDBRANCH   6  11
BRANCH   3  15
ATOM     15  O   UNL     1     -10.488  -2.593 -26.524  1.00  0.00    -0.452 OA
BRANCH  15  16
ATOM     16  C   UNL     1     -10.030  -3.380 -27.524  1.00  0.00     0.331 C 
ATOM     17  O   UNL     1     -10.114  -4.595 -27.580  1.00  0.00    -0.247 OA
BRANCH  16  18
ATOM     18  C   UNL     1      -9.416  -2.509 -28.544  1.00  0.00     0.094 C 
ATOM     19  C   UNL     1     -10.104  -1.465 -29.031  1.00  0.00     0.016 C 
BRANCH  19  20
ATOM     20  C   UNL     1      -9.582  -0.535 -30.043  1.00  0.00    -0.021 A 
ATOM     21  C   UNL     1     -10.495   0.142 -30.868  1.00  0.00     0.058 A 
ATOM     22  C   UNL     1      -8.204  -0.345 -30.247  1.00  0.00     0.012 A 
ATOM     23  C   UNL     1     -10.026   1.008 -31.852  1.00  0.00     0.157 A 
ATOM     24  C   UNL     1      -7.742   0.526 -31.237  1.00  0.00     0.051 A 
ATOM     25  C   UNL     1      -8.659   1.197 -32.030  1.00  0.00     0.157 A 
BRANCH  23  26
ATOM     26  O   UNL     1     -10.875   1.698 -32.674  1.00  0.00    -0.504 OA
ATOM     27  H   UNL     1     -10.941   1.217 -33.517  1.00  0.00     0.293 HD
ENDBRANCH  23  26
BRANCH  25  28
ATOM     28  O   UNL     1      -8.208   2.048 -32.997  1.00  0.00    -0.504 OA
ATOM     29  H   UNL     1      -9.018   2.375 -33.435  1.00  0.00     0.293 HD
ENDBRANCH  25  28
ENDBRANCH  19  20
ENDBRANCH  16  18
ENDBRANCH  15  16
ENDBRANCH   3  15
BRANCH   4  30
ATOM     30  O   UNL     1      -8.094  -1.224 -25.564  1.00  0.00    -0.455 OA
BRANCH  30  31
ATOM     31  C   UNL     1      -8.101  -0.048 -26.235  1.00  0.00     0.331 C 
ATOM     32  O   UNL     1      -9.007   0.773 -26.250  1.00  0.00    -0.247 OA
BRANCH  31  33
ATOM     33  C   UNL     1      -6.850   0.159 -26.992  1.00  0.00     0.094 C 
ATOM     34  C   UNL     1      -5.992  -0.819 -27.323  1.00  0.00     0.016 C 
BRANCH  34  35
ATOM     35  C   UNL     1      -4.763  -0.585 -28.094  1.00  0.00    -0.021 A 
ATOM     36  C   UNL     1      -3.717   0.135 -27.496  1.00  0.00     0.058 A 
ATOM     37  C   UNL     1      -4.629  -1.016 -29.425  1.00  0.00     0.012 A 
ATOM     38  C   UNL     1      -2.554   0.386 -28.219  1.00  0.00     0.157 A 
ATOM     39  C   UNL     1      -3.458  -0.757 -30.143  1.00  0.00     0.051 A 
ATOM     40  C   UNL     1      -2.430  -0.060 -29.531  1.00  0.00     0.157 A 
BRANCH  38  41
ATOM     41  O   UNL     1      -1.501   1.072 -27.680  1.00  0.00    -0.504 OA
ATOM     42  H   UNL     1      -1.327   1.852 -28.234  1.00  0.00     0.293 HD
ENDBRANCH  38  41
BRANCH  40  43
ATOM     43  O   UNL     1      -1.287   0.192 -30.233  1.00  0.00    -0.504 OA
ATOM     44  H   UNL     1      -0.722   0.695 -29.611  1.00  0.00     0.293 HD
ENDBRANCH  40  43
ENDBRANCH  34  35
ENDBRANCH  31  33
ENDBRANCH  30  31
ENDBRANCH   4  30
TORSDOF 16
ENDMDL
MODEL 9
REMARK VINA RESULT:      -8.5      1.826      3.574
REMARK SMILES O=C(/C=C/c1ccc(O)c(O)c1)O[C@@H]1[C@H](O)C[C@@](O)(C(=O)O)C[C@H]1OC(=O)/C=C/c1ccc(O)c(O)c1
REMARK SMILES IDX 17 1 15 2 14 3 24 4 23 5 18 6 16 7 19 9 20 11 21 12 22 13
REMARK SMILES IDX 13 15 2 16 1 17 3 18 4 19 5 20 12 21 6 22 10 23 7 24 8 25
REMARK SMILES IDX 11 26 9 28 25 30 26 31 27 32 28 33 29 34 30 35 37 36 31 37
REMARK SMILES IDX 35 38 32 39 33 40 36 41 34 43
REMARK H PARENT 16 8 19 10 22 14 11 27 9 29 36 42 34 44
ROOT
ATOM      1  C   UNL     1      -9.937  -1.520 -22.217  1.00  0.00     0.083 C 
ATOM      2  C   UNL     1      -9.616  -0.140 -22.786  1.00  0.00     0.162 C 
ATOM      3  C   UNL     1      -8.494  -0.216 -23.836  1.00  0.00     0.246 C 
ATOM      4  C   UNL     1      -7.225  -0.865 -23.248  1.00  0.00     0.223 C 
ATOM      5  C   UNL     1      -7.538  -2.238 -22.645  1.00  0.00     0.097 C 
ATOM      6  C   UNL     1      -8.682  -2.184 -21.631  1.00  0.00     0.168 C 
ENDROOT
BRANCH   2   7
ATOM      7  O   UNL     1      -9.207   0.693 -21.689  1.00  0.00    -0.389 OA
ATOM      8  H   UNL     1      -8.767   1.473 -22.084  1.00  0.00     0.211 HD
ENDBRANCH   2   7
BRANCH   6   9
ATOM      9  O   UNL     1      -8.230  -1.473 -20.459  1.00  0.00    -0.378 OA
ATOM     10  H   UNL     1      -7.260  -1.325 -20.566  1.00  0.00     0.212 HD
ENDBRANCH   6   9
BRANCH   6  11
ATOM     11  C   UNL     1      -9.033  -3.609 -21.180  1.00  0.00     0.335 C 
ATOM     12  O   UNL     1      -8.718  -4.631 -21.769  1.00  0.00    -0.249 OA
BRANCH  11  13
ATOM     13  O   UNL     1      -9.743  -3.604 -20.022  1.00  0.00    -0.479 OA
ATOM     14  H   UNL     1     -10.019  -4.539 -19.852  1.00  0.00     0.296 HD
ENDBRANCH  11  13
ENDBRANCH   6  11
BRANCH   3  15
ATOM     15  O   UNL     1      -8.166   1.126 -24.263  1.00  0.00    -0.452 OA
BRANCH  15  16
ATOM     16  C   UNL     1      -8.635   1.490 -25.480  1.00  0.00     0.331 C 
ATOM     17  O   UNL     1      -8.937   2.618 -25.826  1.00  0.00    -0.247 OA
BRANCH  16  18
ATOM     18  C   UNL     1      -8.710   0.279 -26.319  1.00  0.00     0.094 C 
ATOM     19  C   UNL     1      -7.965   0.191 -27.431  1.00  0.00     0.016 C 
BRANCH  19  20
ATOM     20  C   UNL     1      -7.964  -0.971 -28.331  1.00  0.00    -0.021 A 
ATOM     21  C   UNL     1      -8.324  -2.225 -27.809  1.00  0.00     0.058 A 
ATOM     22  C   UNL     1      -7.563  -0.879 -29.675  1.00  0.00     0.012 A 
ATOM     23  C   UNL     1      -8.306  -3.347 -28.633  1.00  0.00     0.157 A 
ATOM     24  C   UNL     1      -7.547  -2.012 -30.495  1.00  0.00     0.051 A 
ATOM     25  C   UNL     1      -7.922  -3.236 -29.966  1.00  0.00     0.157 A 
BRANCH  23  26
ATOM     26  O   UNL     1      -8.658  -4.587 -28.175  1.00  0.00    -0.504 OA
ATOM     27  H   UNL     1      -9.420  -4.899 -28.693  1.00  0.00     0.293 HD
ENDBRANCH  23  26
BRANCH  25  28
ATOM     28  O   UNL     1      -7.906  -4.341 -30.766  1.00  0.00    -0.504 OA
ATOM     29  H   UNL     1      -8.375  -5.026 -30.250  1.00  0.00     0.293 HD
ENDBRANCH  25  28
ENDBRANCH  19  20
ENDBRANCH  16  18
ENDBRANCH  15  16
ENDBRANCH   3  15
BRANCH   4  30
ATOM     30  O   UNL     1      -6.265  -1.089 -24.308  1.00  0.00    -0.455 OA
BRANCH  30  31
ATOM     31  C   UNL     1      -5.218  -0.231 -24.377  1.00  0.00     0.331 C 
ATOM     32  O   UNL     1      -4.681   0.334 -23.435  1.00  0.00    -0.247 OA
BRANCH  31  33
ATOM     33  C   UNL     1      -4.768  -0.027 -25.769  1.00  0.00     0.094 C 
ATOM     34  C   UNL     1      -4.593  -1.013 -26.663  1.00  0.00     0.016 C 
BRANCH  34  35
ATOM     35  C   UNL     1      -4.162  -0.776 -28.047  1.00  0.00    -0.021 A 
ATOM     36  C   UNL     1      -4.179   0.536 -28.546  1.00  0.00     0.058 A 
ATOM     37  C   UNL     1      -3.784  -1.830 -28.897  1.00  0.00     0.012 A 
ATOM     38  C   UNL     1      -3.795   0.777 -29.862  1.00  0.00     0.157 A 
ATOM     39  C   UNL     1      -3.403  -1.579 -30.218  1.00  0.00     0.051 A 
ATOM     40  C   UNL     1      -3.409  -0.276 -30.687  1.00  0.00     0.157 A 
BRANCH  38  41
ATOM     41  O   UNL     1      -3.782   2.037 -30.394  1.00  0.00    -0.504 OA
ATOM     42  H   UNL     1      -3.276   2.014 -31.224  1.00  0.00     0.293 HD
ENDBRANCH  38  41
BRANCH  40  43
ATOM     43  O   UNL     1      -3.036  -0.031 -31.977  1.00  0.00    -0.504 OA
ATOM     44  H   UNL     1      -2.091   0.216 -31.918  1.00  0.00     0.293 HD
ENDBRANCH  40  43
ENDBRANCH  34  35
ENDBRANCH  31  33
ENDBRANCH  30  31
ENDBRANCH   4  30
TORSDOF 16
ENDMDL
MODEL 10
REMARK VINA RESULT:      -8.2      2.179      4.345
REMARK SMILES O=C(/C=C/c1ccc(O)c(O)c1)O[C@@H]1[C@H](O)C[C@@](O)(C(=O)O)C[C@H]1OC(=O)/C=C/c1ccc(O)c(O)c1
REMARK SMILES IDX 17 1 15 2 14 3 24 4 23 5 18 6 16 7 19 9 20 11 21 12 22 13
REMARK SMILES IDX 13 15 2 16 1 17 3 18 4 19 5 20 12 21 6 22 10 23 7 24 8 25
REMARK SMILES IDX 11 26 9 28 25 30 26 31 27 32 28 33 29 34 30 35 37 36 31 37
REMARK SMILES IDX 35 38 32 39 33 40 36 41 34 43
REMARK H PARENT 16 8 19 10 22 14 11 27 9 29 36 42 34 44
ROOT
ATOM      1  C   UNL     1      -7.992  -1.366 -22.022  1.00  0.00     0.083 C 
ATOM      2  C   UNL     1      -7.504  -0.875 -23.382  1.00  0.00     0.162 C 
ATOM      3  C   UNL     1      -8.674  -0.385 -24.253  1.00  0.00     0.246 C 
ATOM      4  C   UNL     1      -9.737  -1.489 -24.428  1.00  0.00     0.223 C 
ATOM      5  C   UNL     1     -10.214  -2.013 -23.069  1.00  0.00     0.097 C 
ATOM      6  C   UNL     1      -9.056  -2.463 -22.177  1.00  0.00     0.168 C 
ENDROOT
BRANCH   2   7
ATOM      7  O   UNL     1      -6.841  -1.976 -24.024  1.00  0.00    -0.389 OA
ATOM      8  H   UNL     1      -7.088  -2.778 -23.521  1.00  0.00     0.211 HD
ENDBRANCH   2   7
BRANCH   6   9
ATOM      9  O   UNL     1      -8.475  -3.659 -22.738  1.00  0.00    -0.378 OA
ATOM     10  H   UNL     1      -9.172  -4.357 -22.716  1.00  0.00     0.212 HD
ENDBRANCH   6   9
BRANCH   6  11
ATOM     11  C   UNL     1      -9.595  -2.837 -20.789  1.00  0.00     0.335 C 
ATOM     12  O   UNL     1     -10.402  -2.182 -20.148  1.00  0.00    -0.249 OA
BRANCH  11  13
ATOM     13  O   UNL     1      -9.068  -4.009 -20.349  1.00  0.00    -0.479 OA
ATOM     14  H   UNL     1      -9.733  -4.714 -20.548  1.00  0.00     0.296 HD
ENDBRANCH  11  13
ENDBRANCH   6  11
BRANCH   3  15
ATOM     15  O   UNL     1      -8.166  -0.029 -25.558  1.00  0.00    -0.452 OA
BRANCH  15  16
ATOM     16  C   UNL     1      -8.262   1.279 -25.893  1.00  0.00     0.331 C 
ATOM     17  O   UNL     1      -8.849   2.141 -25.264  1.00  0.00    -0.247 OA
BRANCH  16  18
ATOM     18  C   UNL     1      -7.524   1.480 -27.155  1.00  0.00     0.094 C 
ATOM     19  C   UNL     1      -6.650   0.551 -27.571  1.00  0.00     0.016 C 
BRANCH  19  20
ATOM     20  C   UNL     1      -5.870   0.654 -28.813  1.00  0.00    -0.021 A 
ATOM     21  C   UNL     1      -5.040  -0.419 -29.176  1.00  0.00     0.058 A 
ATOM     22  C   UNL     1      -5.887   1.808 -29.616  1.00  0.00     0.012 A 
ATOM     23  C   UNL     1      -4.271  -0.337 -30.333  1.00  0.00     0.157 A 
ATOM     24  C   UNL     1      -5.110   1.882 -30.776  1.00  0.00     0.051 A 
ATOM     25  C   UNL     1      -4.311   0.806 -31.125  1.00  0.00     0.157 A 
BRANCH  23  26
ATOM     26  O   UNL     1      -3.454  -1.359 -30.734  1.00  0.00    -0.504 OA
ATOM     27  H   UNL     1      -3.907  -1.854 -31.438  1.00  0.00     0.293 HD
ENDBRANCH  23  26
BRANCH  25  28
ATOM     28  O   UNL     1      -3.552   0.878 -32.258  1.00  0.00    -0.504 OA
ATOM     29  H   UNL     1      -3.831   1.711 -32.688  1.00  0.00     0.293 HD
ENDBRANCH  25  28
ENDBRANCH  19  20
ENDBRANCH  16  18
ENDBRANCH  15  16
ENDBRANCH   3  15
BRANCH   4  30
ATOM     30  O   UNL     1     -10.900  -0.936 -25.088  1.00  0.00    -0.455 OA
BRANCH  30  31
ATOM     31  C   UNL     1     -11.394  -1.630 -26.141  1.00  0.00     0.331 C 
ATOM     32  O   UNL     1     -12.162  -2.579 -26.087  1.00  0.00    -0.247 OA
BRANCH  31  33
ATOM     33  C   UNL     1     -10.886  -1.110 -27.427  1.00  0.00     0.094 C 
ATOM     34  C   UNL     1      -9.972  -1.731 -28.189  1.00  0.00     0.016 C 
BRANCH  34  35
ATOM     35  C   UNL     1      -9.500  -1.198 -29.475  1.00  0.00    -0.021 A 
ATOM     36  C   UNL     1     -10.263  -0.211 -30.119  1.00  0.00     0.058 A 
ATOM     37  C   UNL     1      -8.337  -1.685 -30.097  1.00  0.00     0.012 A 
ATOM     38  C   UNL     1      -9.843   0.289 -31.348  1.00  0.00     0.157 A 
ATOM     39  C   UNL     1      -7.925  -1.177 -31.332  1.00  0.00     0.051 A 
ATOM     40  C   UNL     1      -8.681  -0.192 -31.945  1.00  0.00     0.157 A 
BRANCH  38  41
ATOM     41  O   UNL     1     -10.543   1.259 -32.012  1.00  0.00    -0.504 OA
ATOM     42  H   UNL     1     -11.102   0.829 -32.681  1.00  0.00     0.293 HD
ENDBRANCH  38  41
BRANCH  40  43
ATOM     43  O   UNL     1      -8.279   0.304 -33.151  1.00  0.00    -0.504 OA
ATOM     44  H   UNL     1      -7.402  -0.103 -33.304  1.00  0.00     0.293 HD
ENDBRANCH  40  43
ENDBRANCH  34  35
ENDBRANCH  31  33
ENDBRANCH  30  31
ENDBRANCH   4  30
TORSDOF 16
ENDMDL
