MODEL 1
REMARK VINA RESULT:      -4.9      0.000      0.000
REMARK SMILES Oc1ccccc1
REMARK SMILES IDX 1 1 2 3 5 4 4 5 6 6 3 7 7 8
REMARK H PARENT 1 2
ROOT
ATOM      1  O   UNL     1       0.412 -12.054 -26.623  1.00  0.00    -0.508 OA
ATOM      2  H   UNL     1       0.638 -12.035 -25.678  1.00  0.00     0.293 HD
ENDROOT
BRANCH   1   3
ATOM      3  C   UNL     1      -0.462 -11.039 -26.878  1.00  0.00     0.115 A 
ATOM      4  C   UNL     1      -2.201  -8.919 -27.331  1.00  0.00     0.000 A 
ATOM      5  C   UNL     1      -2.303 -10.081 -28.097  1.00  0.00     0.004 A 
ATOM      6  C   UNL     1      -1.225  -8.820 -26.337  1.00  0.00     0.004 A 
ATOM      7  C   UNL     1      -1.431 -11.148 -27.871  1.00  0.00     0.046 A 
ATOM      8  C   UNL     1      -0.353  -9.884 -26.110  1.00  0.00     0.046 A 
ENDBRANCH   1   3
TORSDOF 1
ENDMDL
MODEL 2
REMARK VINA RESULT:      -4.9      0.064      1.830
REMARK SMILES Oc1ccccc1
REMARK SMILES IDX 1 1 2 3 5 4 4 5 6 6 3 7 7 8
REMARK H PARENT 1 2
ROOT
ATOM      1  O   UNL     1       0.403 -12.117 -26.620  1.00  0.00    -0.508 OA
ATOM      2  H   UNL     1       1.164 -12.050 -27.221  1.00  0.00     0.293 HD
ENDROOT
BRANCH   1   3
ATOM      3  C   UNL     1      -0.423 -11.058 -26.851  1.00  0.00     0.115 A 
ATOM      4  C   UNL     1      -2.150  -8.946 -27.386  1.00  0.00     0.000 A 
ATOM      5  C   UNL     1      -1.185  -8.822 -26.385  1.00  0.00     0.004 A 
ATOM      6  C   UNL     1      -2.248 -10.131 -28.119  1.00  0.00     0.004 A 
ATOM      7  C   UNL     1      -0.317  -9.881 -26.115  1.00  0.00     0.046 A 
ATOM      8  C   UNL     1      -1.382 -11.189 -27.850  1.00  0.00     0.046 A 
ENDBRANCH   1   3
TORSDOF 1
ENDMDL
MODEL 3
REMARK VINA RESULT:      -4.9     10.446     11.048
REMARK SMILES Oc1ccccc1
REMARK SMILES IDX 1 1 2 3 5 4 4 5 6 6 3 7 7 8
REMARK H PARENT 1 2
ROOT
ATOM      1  O   UNL     1       4.898   0.041 -26.720  1.00  0.00    -0.508 OA
ATOM      2  H   UNL     1       4.174   0.063 -27.367  1.00  0.00     0.293 HD
ENDROOT
BRANCH   1   3
ATOM      3  C   UNL     1       4.467  -0.630 -25.614  1.00  0.00     0.115 A 
ATOM      4  C   UNL     1       3.676  -2.012 -23.337  1.00  0.00     0.000 A 
ATOM      5  C   UNL     1       2.717  -1.453 -24.182  1.00  0.00     0.004 A 
ATOM      6  C   UNL     1       5.033  -1.877 -23.634  1.00  0.00     0.004 A 
ATOM      7  C   UNL     1       3.112  -0.759 -25.327  1.00  0.00     0.046 A 
ATOM      8  C   UNL     1       5.430  -1.184 -24.777  1.00  0.00     0.046 A 
ENDBRANCH   1   3
TORSDOF 1
ENDMDL
MODEL 4
REMARK VINA RESULT:      -4.8      2.037      3.155
REMARK SMILES Oc1ccccc1
REMARK SMILES IDX 1 1 2 3 5 4 4 5 6 6 3 7 7 8
REMARK H PARENT 1 2
ROOT
ATOM      1  O   UNL     1      -3.109  -8.942 -28.721  1.00  0.00    -0.508 OA
ATOM      2  H   UNL     1      -2.653  -8.496 -29.454  1.00  0.00     0.293 HD
ENDROOT
BRANCH   1   3
ATOM      3  C   UNL     1      -2.168  -9.472 -27.888  1.00  0.00     0.115 A 
ATOM      4  C   UNL     1      -0.253 -10.630 -26.239  1.00  0.00     0.000 A 
ATOM      5  C   UNL     1      -0.677  -9.321 -26.004  1.00  0.00     0.004 A 
ATOM      6  C   UNL     1      -0.790 -11.358 -27.303  1.00  0.00     0.004 A 
ATOM      7  C   UNL     1      -1.639  -8.737 -26.831  1.00  0.00     0.046 A 
ATOM      8  C   UNL     1      -1.751 -10.777 -28.129  1.00  0.00     0.046 A 
ENDBRANCH   1   3
TORSDOF 1
ENDMDL
MODEL 5
REMARK VINA RESULT:      -4.8      2.028      2.704
REMARK SMILES Oc1ccccc1
REMARK SMILES IDX 1 1 2 3 5 4 4 5 6 6 3 7 7 8
REMARK H PARENT 1 2
ROOT
ATOM      1  O   UNL     1      -3.854  -9.633 -28.539  1.00  0.00    -0.508 OA
ATOM      2  H   UNL     1      -4.163  -8.714 -28.477  1.00  0.00     0.293 HD
ENDROOT
BRANCH   1   3
ATOM      3  C   UNL     1      -2.686  -9.742 -27.844  1.00  0.00     0.115 A 
ATOM      4  C   UNL     1      -0.322  -9.882 -26.391  1.00  0.00     0.000 A 
ATOM      5  C   UNL     1      -0.700 -10.946 -27.211  1.00  0.00     0.004 A 
ATOM      6  C   UNL     1      -1.130  -8.748 -26.299  1.00  0.00     0.004 A 
ATOM      7  C   UNL     1      -1.888 -10.877 -27.943  1.00  0.00     0.046 A 
ATOM      8  C   UNL     1      -2.316  -8.678 -27.028  1.00  0.00     0.046 A 
ENDBRANCH   1   3
TORSDOF 1
ENDMDL
MODEL 6
REMARK VINA RESULT:      -4.7     15.242     16.251
REMARK SMILES Oc1ccccc1
REMARK SMILES IDX 1 1 2 3 5 4 4 5 6 6 3 7 7 8
REMARK H PARENT 1 2
ROOT
ATOM      1  O   UNL     1       8.299   0.344 -15.411  1.00  0.00    -0.508 OA
ATOM      2  H   UNL     1       8.415  -0.351 -14.742  1.00  0.00     0.293 HD
ENDROOT
BRANCH   1   3
ATOM      3  C   UNL     1       7.815  -0.230 -16.549  1.00  0.00     0.115 A 
ATOM      4  C   UNL     1       6.897  -1.362 -18.915  1.00  0.00     0.000 A 
ATOM      5  C   UNL     1       6.219  -1.600 -17.718  1.00  0.00     0.004 A 
ATOM      6  C   UNL     1       8.037  -0.556 -18.924  1.00  0.00     0.004 A 
ATOM      7  C   UNL     1       6.678  -1.032 -16.528  1.00  0.00     0.046 A 
ATOM      8  C   UNL     1       8.497   0.012 -17.737  1.00  0.00     0.046 A 
ENDBRANCH   1   3
TORSDOF 1
ENDMDL
MODEL 7
REMARK VINA RESULT:      -4.7     14.771     15.870
REMARK SMILES Oc1ccccc1
REMARK SMILES IDX 1 1 2 3 5 4 4 5 6 6 3 7 7 8
REMARK H PARENT 1 2
ROOT
ATOM      1  O   UNL     1       5.781  -1.574 -15.905  1.00  0.00    -0.508 OA
ATOM      2  H   UNL     1       4.940  -1.098 -16.010  1.00  0.00     0.293 HD
ENDROOT
BRANCH   1   3
ATOM      3  C   UNL     1       6.627  -1.178 -16.897  1.00  0.00     0.115 A 
ATOM      4  C   UNL     1       8.302  -0.417 -18.981  1.00  0.00     0.000 A 
ATOM      5  C   UNL     1       8.560   0.023 -17.681  1.00  0.00     0.004 A 
ATOM      6  C   UNL     1       7.203  -1.239 -19.234  1.00  0.00     0.004 A 
ATOM      7  C   UNL     1       7.720  -0.358 -16.633  1.00  0.00     0.046 A 
ATOM      8  C   UNL     1       6.363  -1.621 -18.189  1.00  0.00     0.046 A 
ENDBRANCH   1   3
TORSDOF 1
ENDMDL
MODEL 8
REMARK VINA RESULT:      -4.6     14.527     15.603
REMARK SMILES Oc1ccccc1
REMARK SMILES IDX 1 1 2 3 5 4 4 5 6 6 3 7 7 8
REMARK H PARENT 1 2
ROOT
ATOM      1  O   UNL     1       6.416  -1.484 -20.120  1.00  0.00    -0.508 OA
ATOM      2  H   UNL     1       7.144  -1.834 -20.659  1.00  0.00     0.293 HD
ENDROOT
BRANCH   1   3
ATOM      3  C   UNL     1       6.895  -1.213 -18.873  1.00  0.00     0.115 A 
ATOM      4  C   UNL     1       7.946  -0.623 -16.369  1.00  0.00     0.000 A 
ATOM      5  C   UNL     1       6.702  -1.247 -16.474  1.00  0.00     0.004 A 
ATOM      6  C   UNL     1       8.663  -0.294 -17.521  1.00  0.00     0.004 A 
ATOM      7  C   UNL     1       6.173  -1.545 -17.731  1.00  0.00     0.046 A 
ATOM      8  C   UNL     1       8.135  -0.591 -18.777  1.00  0.00     0.046 A 
ENDBRANCH   1   3
TORSDOF 1
ENDMDL
MODEL 9
REMARK VINA RESULT:      -4.5     14.438     15.538
REMARK SMILES Oc1ccccc1
REMARK SMILES IDX 1 1 2 3 5 4 4 5 6 6 3 7 7 8
REMARK H PARENT 1 2
ROOT
ATOM      1  O   UNL     1       6.347  -1.698 -20.110  1.00  0.00    -0.508 OA
ATOM      2  H   UNL     1       5.433  -1.372 -20.150  1.00  0.00     0.293 HD
ENDROOT
BRANCH   1   3
ATOM      3  C   UNL     1       6.884  -1.331 -18.912  1.00  0.00     0.115 A 
ATOM      4  C   UNL     1       7.909  -0.624 -16.427  1.00  0.00     0.000 A 
ATOM      5  C   UNL     1       8.585  -0.255 -17.591  1.00  0.00     0.004 A 
ATOM      6  C   UNL     1       6.718  -1.348 -16.510  1.00  0.00     0.004 A 
ATOM      7  C   UNL     1       8.072  -0.609 -18.841  1.00  0.00     0.046 A 
ATOM      8  C   UNL     1       6.204  -1.702 -17.757  1.00  0.00     0.046 A 
ENDBRANCH   1   3
TORSDOF 1
ENDMDL
MODEL 10
REMARK VINA RESULT:      -4.5     14.871     15.110
REMARK SMILES Oc1ccccc1
REMARK SMILES IDX 1 1 2 3 5 4 4 5 6 6 3 7 7 8
REMARK H PARENT 1 2
ROOT
ATOM      1  O   UNL     1     -11.598  -0.466 -32.753  1.00  0.00    -0.508 OA
ATOM      2  H   UNL     1     -11.487  -1.316 -32.296  1.00  0.00     0.293 HD
ENDROOT
BRANCH   1   3
ATOM      3  C   UNL     1     -10.395   0.173 -32.773  1.00  0.00     0.115 A 
ATOM      4  C   UNL     1      -7.965   1.523 -32.737  1.00  0.00     0.000 A 
ATOM      5  C   UNL     1      -8.230   0.589 -33.740  1.00  0.00     0.004 A 
ATOM      6  C   UNL     1      -8.920   1.780 -31.752  1.00  0.00     0.004 A 
ATOM      7  C   UNL     1      -9.450  -0.090 -33.760  1.00  0.00     0.046 A 
ATOM      8  C   UNL     1     -10.139   1.103 -31.770  1.00  0.00     0.046 A 
ENDBRANCH   1   3
TORSDOF 1
ENDMDL
