MODEL 1
REMARK VINA RESULT:      -8.1      0.000      0.000
REMARK SMILES O=C(/C=C/c1ccc(O)c(O)c1)O[C@H](Cc1ccc(O)c(O)c1)C(=O)O
REMARK SMILES IDX 13 1 14 2 15 3 16 4 17 5 18 6 19 7 23 8 21 9 20 10 22 12
REMARK SMILES IDX 24 14 25 15 26 16 2 18 1 19 3 20 4 21 5 22 12 23 6 24 10 25
REMARK SMILES IDX 7 26 8 27 11 28 9 30
REMARK H PARENT 20 11 22 13 26 17 11 29 9 31
ROOT
ATOM      1  O   UNL     1      -8.177  -0.040 -32.397  1.00  0.00    -0.447 OA
ENDROOT
BRANCH   1   2
ATOM      2  C   UNL     1      -9.348   0.523 -31.781  1.00  0.00     0.290 C 
BRANCH   2   3
ATOM      3  C   UNL     1      -9.811  -0.431 -30.666  1.00  0.00     0.093 C 
BRANCH   3   4
ATOM      4  C   UNL     1      -8.667  -0.951 -29.822  1.00  0.00    -0.040 A 
ATOM      5  C   UNL     1      -8.223  -2.276 -29.969  1.00  0.00     0.008 A 
ATOM      6  C   UNL     1      -7.159  -2.766 -29.204  1.00  0.00     0.050 A 
ATOM      7  C   UNL     1      -6.537  -1.925 -28.291  1.00  0.00     0.157 A 
ATOM      8  C   UNL     1      -8.036  -0.122 -28.882  1.00  0.00     0.054 A 
ATOM      9  C   UNL     1      -6.975  -0.613 -28.135  1.00  0.00     0.157 A 
BRANCH   7  10
ATOM     10  O   UNL     1      -5.487  -2.340 -27.520  1.00  0.00    -0.504 OA
ATOM     11  H   UNL     1      -4.852  -1.606 -27.452  1.00  0.00     0.293 HD
ENDBRANCH   7  10
BRANCH   9  12
ATOM     12  O   UNL     1      -6.357   0.210 -27.238  1.00  0.00    -0.504 OA
ATOM     13  H   UNL     1      -7.064   0.811 -26.929  1.00  0.00     0.293 HD
ENDBRANCH   9  12
ENDBRANCH   3   4
ENDBRANCH   2   3
BRANCH   2  14
ATOM     14  C   UNL     1     -10.486   0.724 -32.793  1.00  0.00     0.345 C 
ATOM     15  O   UNL     1     -11.014  -0.176 -33.431  1.00  0.00    -0.248 OA
BRANCH  14  16
ATOM     16  O   UNL     1     -10.884   2.012 -32.925  1.00  0.00    -0.478 OA
ATOM     17  H   UNL     1     -11.619   2.273 -32.317  1.00  0.00     0.296 HD
ENDBRANCH  14  16
ENDBRANCH   2  14
ENDBRANCH   1   2
BRANCH   1  18
ATOM     18  C   UNL     1      -7.296   0.862 -32.885  1.00  0.00     0.331 C 
ATOM     19  O   UNL     1      -7.299   1.294 -34.027  1.00  0.00    -0.247 OA
BRANCH  18  20
ATOM     20  C   UNL     1      -6.313   1.184 -31.838  1.00  0.00     0.094 C 
ATOM     21  C   UNL     1      -5.383   0.281 -31.495  1.00  0.00     0.016 C 
BRANCH  21  22
ATOM     22  C   UNL     1      -4.381   0.512 -30.448  1.00  0.00    -0.021 A 
ATOM     23  C   UNL     1      -4.310   1.731 -29.752  1.00  0.00     0.058 A 
ATOM     24  C   UNL     1      -3.518  -0.536 -30.089  1.00  0.00     0.012 A 
ATOM     25  C   UNL     1      -3.372   1.889 -28.737  1.00  0.00     0.157 A 
ATOM     26  C   UNL     1      -2.576  -0.367 -29.071  1.00  0.00     0.051 A 
ATOM     27  C   UNL     1      -2.511   0.847 -28.404  1.00  0.00     0.157 A 
BRANCH  25  28
ATOM     28  O   UNL     1      -3.262   3.052 -28.028  1.00  0.00    -0.504 OA
ATOM     29  H   UNL     1      -4.149   3.440 -27.934  1.00  0.00     0.293 HD
ENDBRANCH  25  28
BRANCH  27  30
ATOM     30  O   UNL     1      -1.597   1.009 -27.404  1.00  0.00    -0.504 OA
ATOM     31  H   UNL     1      -1.448   1.975 -27.363  1.00  0.00     0.293 HD
ENDBRANCH  27  30
ENDBRANCH  21  22
ENDBRANCH  18  20
ENDBRANCH   1  18
TORSDOF 12
ENDMDL
MODEL 2
REMARK VINA RESULT:      -8.0      2.969      7.000
REMARK SMILES O=C(/C=C/c1ccc(O)c(O)c1)O[C@H](Cc1ccc(O)c(O)c1)C(=O)O
REMARK SMILES IDX 13 1 14 2 15 3 16 4 17 5 18 6 19 7 23 8 21 9 20 10 22 12
REMARK SMILES IDX 24 14 25 15 26 16 2 18 1 19 3 20 4 21 5 22 12 23 6 24 10 25
REMARK SMILES IDX 7 26 8 27 11 28 9 30
REMARK H PARENT 20 11 22 13 26 17 11 29 9 31
ROOT
ATOM      1  O   UNL     1      -5.990  -0.774 -30.686  1.00  0.00    -0.447 OA
ENDROOT
BRANCH   1   2
ATOM      2  C   UNL     1      -5.325   0.499 -30.637  1.00  0.00     0.290 C 
BRANCH   2   3
ATOM      3  C   UNL     1      -6.388   1.603 -30.772  1.00  0.00     0.093 C 
BRANCH   3   4
ATOM      4  C   UNL     1      -7.613   1.152 -31.538  1.00  0.00    -0.040 A 
ATOM      5  C   UNL     1      -7.566   1.020 -32.937  1.00  0.00     0.008 A 
ATOM      6  C   UNL     1      -8.687   0.592 -33.656  1.00  0.00     0.050 A 
ATOM      7  C   UNL     1      -9.857   0.293 -32.971  1.00  0.00     0.157 A 
ATOM      8  C   UNL     1      -8.810   0.862 -30.867  1.00  0.00     0.054 A 
ATOM      9  C   UNL     1      -9.914   0.428 -31.587  1.00  0.00     0.157 A 
BRANCH   7  10
ATOM     10  O   UNL     1     -10.984  -0.138 -33.615  1.00  0.00    -0.504 OA
ATOM     11  H   UNL     1     -10.777  -0.221 -34.563  1.00  0.00     0.293 HD
ENDBRANCH   7  10
BRANCH   9  12
ATOM     12  O   UNL     1     -11.067   0.130 -30.920  1.00  0.00    -0.504 OA
ATOM     13  H   UNL     1     -10.783  -0.448 -30.185  1.00  0.00     0.293 HD
ENDBRANCH   9  12
ENDBRANCH   3   4
ENDBRANCH   2   3
BRANCH   2  14
ATOM     14  C   UNL     1      -4.285   0.646 -31.758  1.00  0.00     0.345 C 
ATOM     15  O   UNL     1      -4.251   1.571 -32.557  1.00  0.00    -0.248 OA
BRANCH  14  16
ATOM     16  O   UNL     1      -3.370  -0.353 -31.794  1.00  0.00    -0.478 OA
ATOM     17  H   UNL     1      -3.725  -1.216 -32.119  1.00  0.00     0.296 HD
ENDBRANCH  14  16
ENDBRANCH   2  14
ENDBRANCH   1   2
BRANCH   1  18
ATOM     18  C   UNL     1      -5.548  -1.686 -29.791  1.00  0.00     0.331 C 
ATOM     19  O   UNL     1      -4.373  -1.915 -29.548  1.00  0.00    -0.247 OA
BRANCH  18  20
ATOM     20  C   UNL     1      -6.706  -2.387 -29.212  1.00  0.00     0.094 C 
ATOM     21  C   UNL     1      -7.524  -3.094 -30.006  1.00  0.00     0.016 C 
BRANCH  21  22
ATOM     22  C   UNL     1      -8.711  -3.803 -29.515  1.00  0.00    -0.021 A 
ATOM     23  C   UNL     1      -9.492  -4.607 -30.362  1.00  0.00     0.058 A 
ATOM     24  C   UNL     1      -9.032  -3.726 -28.150  1.00  0.00     0.012 A 
ATOM     25  C   UNL     1     -10.584  -5.295 -29.841  1.00  0.00     0.157 A 
ATOM     26  C   UNL     1     -10.133  -4.418 -27.638  1.00  0.00     0.051 A 
ATOM     27  C   UNL     1     -10.900  -5.196 -28.490  1.00  0.00     0.157 A 
BRANCH  25  28
ATOM     28  O   UNL     1     -11.375  -6.092 -30.621  1.00  0.00    -0.504 OA
ATOM     29  H   UNL     1     -11.154  -5.927 -31.553  1.00  0.00     0.293 HD
ENDBRANCH  25  28
BRANCH  27  30
ATOM     30  O   UNL     1     -11.970  -5.878 -27.987  1.00  0.00    -0.504 OA
ATOM     31  H   UNL     1     -12.514  -6.093 -28.772  1.00  0.00     0.293 HD
ENDBRANCH  27  30
ENDBRANCH  21  22
ENDBRANCH  18  20
ENDBRANCH   1  18
TORSDOF 12
ENDMDL
MODEL 3
REMARK VINA RESULT:      -7.9      2.306      6.046
REMARK SMILES O=C(/C=C/c1ccc(O)c(O)c1)O[C@H](Cc1ccc(O)c(O)c1)C(=O)O
REMARK SMILES IDX 13 1 14 2 15 3 16 4 17 5 18 6 19 7 23 8 21 9 20 10 22 12
REMARK SMILES IDX 24 14 25 15 26 16 2 18 1 19 3 20 4 21 5 22 12 23 6 24 10 25
REMARK SMILES IDX 7 26 8 27 11 28 9 30
REMARK H PARENT 20 11 22 13 26 17 11 29 9 31
ROOT
ATOM      1  O   UNL     1      -3.856   2.120 -29.951  1.00  0.00    -0.447 OA
ENDROOT
BRANCH   1   2
ATOM      2  C   UNL     1      -3.930   0.684 -29.965  1.00  0.00     0.290 C 
BRANCH   2   3
ATOM      3  C   UNL     1      -3.053   0.145 -28.822  1.00  0.00     0.093 C 
BRANCH   3   4
ATOM      4  C   UNL     1      -3.861  -0.422 -27.674  1.00  0.00    -0.040 A 
ATOM      5  C   UNL     1      -4.426  -1.705 -27.771  1.00  0.00     0.008 A 
ATOM      6  C   UNL     1      -5.165  -2.246 -26.713  1.00  0.00     0.050 A 
ATOM      7  C   UNL     1      -5.335  -1.500 -25.554  1.00  0.00     0.157 A 
ATOM      8  C   UNL     1      -4.059   0.323 -26.501  1.00  0.00     0.054 A 
ATOM      9  C   UNL     1      -4.784  -0.226 -25.454  1.00  0.00     0.157 A 
BRANCH   7  10
ATOM     10  O   UNL     1      -6.039  -1.976 -24.483  1.00  0.00    -0.504 OA
ATOM     11  H   UNL     1      -6.014  -1.301 -23.782  1.00  0.00     0.293 HD
ENDBRANCH   7  10
BRANCH   9  12
ATOM     12  O   UNL     1      -4.953   0.501 -24.310  1.00  0.00    -0.504 OA
ATOM     13  H   UNL     1      -4.088   0.931 -24.163  1.00  0.00     0.293 HD
ENDBRANCH   9  12
ENDBRANCH   3   4
ENDBRANCH   2   3
BRANCH   2  14
ATOM     14  C   UNL     1      -3.451   0.099 -31.301  1.00  0.00     0.345 C 
ATOM     15  O   UNL     1      -3.139  -1.071 -31.475  1.00  0.00    -0.248 OA
BRANCH  14  16
ATOM     16  O   UNL     1      -3.407   1.000 -32.313  1.00  0.00    -0.478 OA
ATOM     17  H   UNL     1      -3.692   1.911 -32.056  1.00  0.00     0.296 HD
ENDBRANCH  14  16
ENDBRANCH   2  14
ENDBRANCH   1   2
BRANCH   1  18
ATOM     18  C   UNL     1      -4.981   2.748 -29.542  1.00  0.00     0.331 C 
ATOM     19  O   UNL     1      -5.008   3.737 -28.826  1.00  0.00    -0.247 OA
BRANCH  18  20
ATOM     20  C   UNL     1      -6.150   2.012 -30.050  1.00  0.00     0.094 C 
ATOM     21  C   UNL     1      -6.614   2.264 -31.282  1.00  0.00     0.016 C 
BRANCH  21  22
ATOM     22  C   UNL     1      -7.785   1.592 -31.856  1.00  0.00    -0.021 A 
ATOM     23  C   UNL     1      -8.916   1.290 -31.080  1.00  0.00     0.058 A 
ATOM     24  C   UNL     1      -7.798   1.305 -33.231  1.00  0.00     0.012 A 
ATOM     25  C   UNL     1     -10.021   0.692 -31.678  1.00  0.00     0.157 A 
ATOM     26  C   UNL     1      -8.911   0.701 -33.822  1.00  0.00     0.051 A 
ATOM     27  C   UNL     1     -10.013   0.398 -33.038  1.00  0.00     0.157 A 
BRANCH  25  28
ATOM     28  O   UNL     1     -11.147   0.379 -30.968  1.00  0.00    -0.504 OA
ATOM     29  H   UNL     1     -11.781   1.110 -31.062  1.00  0.00     0.293 HD
ENDBRANCH  25  28
BRANCH  27  30
ATOM     30  O   UNL     1     -11.102  -0.185 -33.617  1.00  0.00    -0.504 OA
ATOM     31  H   UNL     1     -10.757  -1.010 -34.014  1.00  0.00     0.293 HD
ENDBRANCH  27  30
ENDBRANCH  21  22
ENDBRANCH  18  20
ENDBRANCH   1  18
TORSDOF 12
ENDMDL
MODEL 4
REMARK VINA RESULT:      -7.7      2.422      6.497
REMARK SMILES O=C(/C=C/c1ccc(O)c(O)c1)O[C@H](Cc1ccc(O)c(O)c1)C(=O)O
REMARK SMILES IDX 13 1 14 2 15 3 16 4 17 5 18 6 19 7 23 8 21 9 20 10 22 12
REMARK SMILES IDX 24 14 25 15 26 16 2 18 1 19 3 20 4 21 5 22 12 23 6 24 10 25
REMARK SMILES IDX 7 26 8 27 11 28 9 30
REMARK H PARENT 20 11 22 13 26 17 11 29 9 31
ROOT
ATOM      1  O   UNL     1      -4.978  -0.559 -31.038  1.00  0.00    -0.447 OA
ENDROOT
BRANCH   1   2
ATOM      2  C   UNL     1      -5.722   0.649 -30.800  1.00  0.00     0.290 C 
BRANCH   2   3
ATOM      3  C   UNL     1      -6.327   1.111 -32.137  1.00  0.00     0.093 C 
BRANCH   3   4
ATOM      4  C   UNL     1      -7.766   0.674 -32.316  1.00  0.00    -0.040 A 
ATOM      5  C   UNL     1      -8.127  -0.671 -32.129  1.00  0.00     0.008 A 
ATOM      6  C   UNL     1      -9.454  -1.086 -32.279  1.00  0.00     0.050 A 
ATOM      7  C   UNL     1     -10.423  -0.150 -32.615  1.00  0.00     0.157 A 
ATOM      8  C   UNL     1      -8.757   1.602 -32.672  1.00  0.00     0.054 A 
ATOM      9  C   UNL     1     -10.072   1.183 -32.808  1.00  0.00     0.157 A 
BRANCH   7  10
ATOM     10  O   UNL     1     -11.738  -0.491 -32.767  1.00  0.00    -0.504 OA
ATOM     11  H   UNL     1     -11.815  -1.051 -33.559  1.00  0.00     0.293 HD
ENDBRANCH   7  10
BRANCH   9  12
ATOM     12  O   UNL     1     -11.030   2.099 -33.135  1.00  0.00    -0.504 OA
ATOM     13  H   UNL     1     -10.612   2.658 -33.819  1.00  0.00     0.293 HD
ENDBRANCH   9  12
ENDBRANCH   3   4
ENDBRANCH   2   3
BRANCH   2  14
ATOM     14  C   UNL     1      -4.836   1.762 -30.223  1.00  0.00     0.345 C 
ATOM     15  O   UNL     1      -4.703   1.995 -29.030  1.00  0.00    -0.248 OA
BRANCH  14  16
ATOM     16  O   UNL     1      -4.182   2.488 -31.162  1.00  0.00    -0.478 OA
ATOM     17  H   UNL     1      -3.457   3.056 -30.802  1.00  0.00     0.296 HD
ENDBRANCH  14  16
ENDBRANCH   2  14
ENDBRANCH   1   2
BRANCH   1  18
ATOM     18  C   UNL     1      -4.622  -1.240 -29.926  1.00  0.00     0.331 C 
ATOM     19  O   UNL     1      -3.479  -1.354 -29.511  1.00  0.00    -0.247 OA
BRANCH  18  20
ATOM     20  C   UNL     1      -5.822  -1.862 -29.342  1.00  0.00     0.094 C 
ATOM     21  C   UNL     1      -6.538  -2.737 -30.064  1.00  0.00     0.016 C 
BRANCH  21  22
ATOM     22  C   UNL     1      -7.758  -3.384 -29.567  1.00  0.00    -0.021 A 
ATOM     23  C   UNL     1      -8.270  -3.110 -28.288  1.00  0.00     0.058 A 
ATOM     24  C   UNL     1      -8.464  -4.248 -30.420  1.00  0.00     0.012 A 
ATOM     25  C   UNL     1      -9.453  -3.715 -27.877  1.00  0.00     0.157 A 
ATOM     26  C   UNL     1      -9.650  -4.855 -29.997  1.00  0.00     0.051 A 
ATOM     27  C   UNL     1     -10.134  -4.583 -28.727  1.00  0.00     0.157 A 
BRANCH  25  28
ATOM     28  O   UNL     1      -9.995  -3.481 -26.644  1.00  0.00    -0.504 OA
ATOM     29  H   UNL     1     -10.038  -2.520 -26.505  1.00  0.00     0.293 HD
ENDBRANCH  25  28
BRANCH  27  30
ATOM     30  O   UNL     1     -11.296  -5.169 -28.317  1.00  0.00    -0.504 OA
ATOM     31  H   UNL     1     -11.355  -4.956 -27.364  1.00  0.00     0.293 HD
ENDBRANCH  27  30
ENDBRANCH  21  22
ENDBRANCH  18  20
ENDBRANCH   1  18
TORSDOF 12
ENDMDL
MODEL 5
REMARK VINA RESULT:      -7.7      2.182      2.862
REMARK SMILES O=C(/C=C/c1ccc(O)c(O)c1)O[C@H](Cc1ccc(O)c(O)c1)C(=O)O
REMARK SMILES IDX 13 1 14 2 15 3 16 4 17 5 18 6 19 7 23 8 21 9 20 10 22 12
REMARK SMILES IDX 24 14 25 15 26 16 2 18 1 19 3 20 4 21 5 22 12 23 6 24 10 25
REMARK SMILES IDX 7 26 8 27 11 28 9 30
REMARK H PARENT 20 11 22 13 26 17 11 29 9 31
ROOT
ATOM      1  O   UNL     1      -8.214   0.116 -33.151  1.00  0.00    -0.447 OA
ENDROOT
BRANCH   1   2
ATOM      2  C   UNL     1      -9.316   0.011 -32.234  1.00  0.00     0.290 C 
BRANCH   2   3
ATOM      3  C   UNL     1      -9.524  -1.476 -31.901  1.00  0.00     0.093 C 
BRANCH   3   4
ATOM      4  C   UNL     1      -9.416  -1.770 -30.419  1.00  0.00    -0.040 A 
ATOM      5  C   UNL     1      -9.802  -0.803 -29.475  1.00  0.00     0.008 A 
ATOM      6  C   UNL     1      -9.719  -1.066 -28.103  1.00  0.00     0.050 A 
ATOM      7  C   UNL     1      -9.249  -2.301 -27.677  1.00  0.00     0.157 A 
ATOM      8  C   UNL     1      -8.927  -3.005 -29.968  1.00  0.00     0.054 A 
ATOM      9  C   UNL     1      -8.858  -3.261 -28.606  1.00  0.00     0.157 A 
BRANCH   7  10
ATOM     10  O   UNL     1      -9.152  -2.621 -26.351  1.00  0.00    -0.504 OA
ATOM     11  H   UNL     1      -8.667  -1.907 -25.902  1.00  0.00     0.293 HD
ENDBRANCH   7  10
BRANCH   9  12
ATOM     12  O   UNL     1      -8.400  -4.474 -28.180  1.00  0.00    -0.504 OA
ATOM     13  H   UNL     1      -8.540  -5.070 -28.942  1.00  0.00     0.293 HD
ENDBRANCH   9  12
ENDBRANCH   3   4
ENDBRANCH   2   3
BRANCH   2  14
ATOM     14  C   UNL     1     -10.610   0.592 -32.824  1.00  0.00     0.345 C 
ATOM     15  O   UNL     1     -10.793   1.778 -33.060  1.00  0.00    -0.248 OA
BRANCH  14  16
ATOM     16  O   UNL     1     -11.562  -0.336 -33.084  1.00  0.00    -0.478 OA
ATOM     17  H   UNL     1     -11.258  -1.077 -33.663  1.00  0.00     0.296 HD
ENDBRANCH  14  16
ENDBRANCH   2  14
ENDBRANCH   1   2
BRANCH   1  18
ATOM     18  C   UNL     1      -7.169   0.852 -32.709  1.00  0.00     0.331 C 
ATOM     19  O   UNL     1      -6.462   1.556 -33.414  1.00  0.00    -0.247 OA
BRANCH  18  20
ATOM     20  C   UNL     1      -6.996   0.616 -31.267  1.00  0.00     0.094 C 
ATOM     21  C   UNL     1      -6.147  -0.331 -30.843  1.00  0.00     0.016 C 
BRANCH  21  22
ATOM     22  C   UNL     1      -5.932  -0.646 -29.425  1.00  0.00    -0.021 A 
ATOM     23  C   UNL     1      -6.258   0.268 -28.410  1.00  0.00     0.058 A 
ATOM     24  C   UNL     1      -5.449  -1.918 -29.077  1.00  0.00     0.012 A 
ATOM     25  C   UNL     1      -6.077  -0.091 -27.078  1.00  0.00     0.157 A 
ATOM     26  C   UNL     1      -5.266  -2.268 -27.737  1.00  0.00     0.051 A 
ATOM     27  C   UNL     1      -5.582  -1.349 -26.748  1.00  0.00     0.157 A 
BRANCH  25  28
ATOM     28  O   UNL     1      -6.381   0.759 -26.051  1.00  0.00    -0.504 OA
ATOM     29  H   UNL     1      -6.617   1.624 -26.429  1.00  0.00     0.293 HD
ENDBRANCH  25  28
BRANCH  27  30
ATOM     30  O   UNL     1      -5.411  -1.695 -25.439  1.00  0.00    -0.504 OA
ATOM     31  H   UNL     1      -5.554  -2.662 -25.420  1.00  0.00     0.293 HD
ENDBRANCH  27  30
ENDBRANCH  21  22
ENDBRANCH  18  20
ENDBRANCH   1  18
TORSDOF 12
ENDMDL
MODEL 6
REMARK VINA RESULT:      -7.6      2.112      7.033
REMARK SMILES O=C(/C=C/c1ccc(O)c(O)c1)O[C@H](Cc1ccc(O)c(O)c1)C(=O)O
REMARK SMILES IDX 13 1 14 2 15 3 16 4 17 5 18 6 19 7 23 8 21 9 20 10 22 12
REMARK SMILES IDX 24 14 25 15 26 16 2 18 1 19 3 20 4 21 5 22 12 23 6 24 10 25
REMARK SMILES IDX 7 26 8 27 11 28 9 30
REMARK H PARENT 20 11 22 13 26 17 11 29 9 31
ROOT
ATOM      1  O   UNL     1      -6.847  -1.794 -26.955  1.00  0.00    -0.447 OA
ENDROOT
BRANCH   1   2
ATOM      2  C   UNL     1      -5.846  -0.843 -26.554  1.00  0.00     0.290 C 
BRANCH   2   3
ATOM      3  C   UNL     1      -4.540  -1.177 -27.295  1.00  0.00     0.093 C 
BRANCH   3   4
ATOM      4  C   UNL     1      -4.418  -0.468 -28.627  1.00  0.00    -0.040 A 
ATOM      5  C   UNL     1      -5.047   0.773 -28.829  1.00  0.00     0.008 A 
ATOM      6  C   UNL     1      -4.933   1.445 -30.051  1.00  0.00     0.050 A 
ATOM      7  C   UNL     1      -4.184   0.874 -31.071  1.00  0.00     0.157 A 
ATOM      8  C   UNL     1      -3.680  -1.036 -29.676  1.00  0.00     0.054 A 
ATOM      9  C   UNL     1      -3.563  -0.358 -30.880  1.00  0.00     0.157 A 
BRANCH   7  10
ATOM     10  O   UNL     1      -4.026   1.484 -32.284  1.00  0.00    -0.504 OA
ATOM     11  H   UNL     1      -4.187   0.822 -32.979  1.00  0.00     0.293 HD
ENDBRANCH   7  10
BRANCH   9  12
ATOM     12  O   UNL     1      -2.825  -0.912 -31.886  1.00  0.00    -0.504 OA
ATOM     13  H   UNL     1      -2.356  -0.156 -32.292  1.00  0.00     0.293 HD
ENDBRANCH   9  12
ENDBRANCH   3   4
ENDBRANCH   2   3
BRANCH   2  14
ATOM     14  C   UNL     1      -5.602  -0.874 -25.038  1.00  0.00     0.345 C 
ATOM     15  O   UNL     1      -5.071   0.026 -24.402  1.00  0.00    -0.248 OA
BRANCH  14  16
ATOM     16  O   UNL     1      -6.040  -2.004 -24.433  1.00  0.00    -0.478 OA
ATOM     17  H   UNL     1      -5.321  -2.557 -24.039  1.00  0.00     0.296 HD
ENDBRANCH  14  16
ENDBRANCH   2  14
ENDBRANCH   1   2
BRANCH   1  18
ATOM     18  C   UNL     1      -8.124  -1.405 -26.745  1.00  0.00     0.331 C 
ATOM     19  O   UNL     1      -8.817  -1.759 -25.804  1.00  0.00    -0.247 OA
BRANCH  18  20
ATOM     20  C   UNL     1      -8.550  -0.542 -27.860  1.00  0.00     0.094 C 
ATOM     21  C   UNL     1      -8.672  -1.056 -29.092  1.00  0.00     0.016 C 
BRANCH  21  22
ATOM     22  C   UNL     1      -9.069  -0.262 -30.261  1.00  0.00    -0.021 A 
ATOM     23  C   UNL     1     -10.105  -0.674 -31.115  1.00  0.00     0.058 A 
ATOM     24  C   UNL     1      -8.438   0.972 -30.490  1.00  0.00     0.012 A 
ATOM     25  C   UNL     1     -10.475   0.134 -32.186  1.00  0.00     0.157 A 
ATOM     26  C   UNL     1      -8.814   1.774 -31.571  1.00  0.00     0.051 A 
ATOM     27  C   UNL     1      -9.830   1.346 -32.410  1.00  0.00     0.157 A 
BRANCH  25  28
ATOM     28  O   UNL     1     -11.478  -0.219 -33.045  1.00  0.00    -0.504 OA
ATOM     29  H   UNL     1     -11.307  -1.123 -33.362  1.00  0.00     0.293 HD
ENDBRANCH  25  28
BRANCH  27  30
ATOM     30  O   UNL     1     -10.203   2.134 -33.461  1.00  0.00    -0.504 OA
ATOM     31  H   UNL     1     -11.070   1.776 -33.740  1.00  0.00     0.293 HD
ENDBRANCH  27  30
ENDBRANCH  21  22
ENDBRANCH  18  20
ENDBRANCH   1  18
TORSDOF 12
ENDMDL
MODEL 7
REMARK VINA RESULT:      -7.5      1.905      3.574
REMARK SMILES O=C(/C=C/c1ccc(O)c(O)c1)O[C@H](Cc1ccc(O)c(O)c1)C(=O)O
REMARK SMILES IDX 13 1 14 2 15 3 16 4 17 5 18 6 19 7 23 8 21 9 20 10 22 12
REMARK SMILES IDX 24 14 25 15 26 16 2 18 1 19 3 20 4 21 5 22 12 23 6 24 10 25
REMARK SMILES IDX 7 26 8 27 11 28 9 30
REMARK H PARENT 20 11 22 13 26 17 11 29 9 31
ROOT
ATOM      1  O   UNL     1      -9.314  -1.032 -30.634  1.00  0.00    -0.447 OA
ENDROOT
BRANCH   1   2
ATOM      2  C   UNL     1      -8.996  -0.183 -31.751  1.00  0.00     0.290 C 
BRANCH   2   3
ATOM      3  C   UNL     1      -8.995   1.275 -31.262  1.00  0.00     0.093 C 
BRANCH   3   4
ATOM      4  C   UNL     1      -7.608   1.785 -30.928  1.00  0.00    -0.040 A 
ATOM      5  C   UNL     1      -7.356   2.389 -29.684  1.00  0.00     0.008 A 
ATOM      6  C   UNL     1      -6.077   2.853 -29.357  1.00  0.00     0.050 A 
ATOM      7  C   UNL     1      -5.049   2.708 -30.278  1.00  0.00     0.157 A 
ATOM      8  C   UNL     1      -6.559   1.663 -31.851  1.00  0.00     0.054 A 
ATOM      9  C   UNL     1      -5.292   2.117 -31.515  1.00  0.00     0.157 A 
BRANCH   7  10
ATOM     10  O   UNL     1      -3.776   3.133 -30.016  1.00  0.00    -0.504 OA
ATOM     11  H   UNL     1      -3.284   2.390 -29.622  1.00  0.00     0.293 HD
ENDBRANCH   7  10
BRANCH   9  12
ATOM     12  O   UNL     1      -4.275   1.975 -32.414  1.00  0.00    -0.504 OA
ATOM     13  H   UNL     1      -3.613   1.425 -31.951  1.00  0.00     0.293 HD
ENDBRANCH   9  12
ENDBRANCH   3   4
ENDBRANCH   2   3
BRANCH   2  14
ATOM     14  C   UNL     1     -10.007  -0.342 -32.896  1.00  0.00     0.345 C 
ATOM     15  O   UNL     1     -11.218  -0.232 -32.773  1.00  0.00    -0.248 OA
BRANCH  14  16
ATOM     16  O   UNL     1      -9.440  -0.610 -34.098  1.00  0.00    -0.478 OA
ATOM     17  H   UNL     1      -9.533   0.118 -34.760  1.00  0.00     0.296 HD
ENDBRANCH  14  16
ENDBRANCH   2  14
ENDBRANCH   1   2
BRANCH   1  18
ATOM     18  C   UNL     1      -8.391  -1.980 -30.355  1.00  0.00     0.331 C 
ATOM     19  O   UNL     1      -8.522  -3.172 -30.586  1.00  0.00    -0.247 OA
BRANCH  18  20
ATOM     20  C   UNL     1      -7.246  -1.347 -29.681  1.00  0.00     0.094 C 
ATOM     21  C   UNL     1      -6.016  -1.467 -30.201  1.00  0.00     0.016 C 
BRANCH  21  22
ATOM     22  C   UNL     1      -4.818  -0.887 -29.581  1.00  0.00    -0.021 A 
ATOM     23  C   UNL     1      -3.637  -0.678 -30.313  1.00  0.00     0.058 A 
ATOM     24  C   UNL     1      -4.879  -0.472 -28.241  1.00  0.00     0.012 A 
ATOM     25  C   UNL     1      -2.542  -0.085 -29.695  1.00  0.00     0.157 A 
ATOM     26  C   UNL     1      -3.772   0.119 -27.627  1.00  0.00     0.051 A 
ATOM     27  C   UNL     1      -2.611   0.306 -28.361  1.00  0.00     0.157 A 
BRANCH  25  28
ATOM     28  O   UNL     1      -1.370   0.144 -30.362  1.00  0.00    -0.504 OA
ATOM     29  H   UNL     1      -1.388  -0.359 -31.194  1.00  0.00     0.293 HD
ENDBRANCH  25  28
BRANCH  27  30
ATOM     30  O   UNL     1      -1.532   0.891 -27.763  1.00  0.00    -0.504 OA
ATOM     31  H   UNL     1      -0.763   0.397 -28.110  1.00  0.00     0.293 HD
ENDBRANCH  27  30
ENDBRANCH  21  22
ENDBRANCH  18  20
ENDBRANCH   1  18
TORSDOF 12
ENDMDL
MODEL 8
REMARK VINA RESULT:      -7.5      2.746      6.905
REMARK SMILES O=C(/C=C/c1ccc(O)c(O)c1)O[C@H](Cc1ccc(O)c(O)c1)C(=O)O
REMARK SMILES IDX 13 1 14 2 15 3 16 4 17 5 18 6 19 7 23 8 21 9 20 10 22 12
REMARK SMILES IDX 24 14 25 15 26 16 2 18 1 19 3 20 4 21 5 22 12 23 6 24 10 25
REMARK SMILES IDX 7 26 8 27 11 28 9 30
REMARK H PARENT 20 11 22 13 26 17 11 29 9 31
ROOT
ATOM      1  O   UNL     1      -5.808  -0.554 -30.854  1.00  0.00    -0.447 OA
ENDROOT
BRANCH   1   2
ATOM      2  C   UNL     1      -6.164   0.652 -30.158  1.00  0.00     0.290 C 
BRANCH   2   3
ATOM      3  C   UNL     1      -7.059   1.496 -31.082  1.00  0.00     0.093 C 
BRANCH   3   4
ATOM      4  C   UNL     1      -8.378   0.824 -31.400  1.00  0.00    -0.040 A 
ATOM      5  C   UNL     1      -9.142   0.240 -30.375  1.00  0.00     0.008 A 
ATOM      6  C   UNL     1     -10.368  -0.373 -30.653  1.00  0.00     0.050 A 
ATOM      7  C   UNL     1     -10.832  -0.398 -31.961  1.00  0.00     0.157 A 
ATOM      8  C   UNL     1      -8.856   0.773 -32.719  1.00  0.00     0.054 A 
ATOM      9  C   UNL     1     -10.078   0.172 -32.984  1.00  0.00     0.157 A 
BRANCH   7  10
ATOM     10  O   UNL     1     -12.026  -0.973 -32.297  1.00  0.00    -0.504 OA
ATOM     11  H   UNL     1     -12.200  -0.783 -33.235  1.00  0.00     0.293 HD
ENDBRANCH   7  10
BRANCH   9  12
ATOM     12  O   UNL     1     -10.541   0.147 -34.268  1.00  0.00    -0.504 OA
ATOM     13  H   UNL     1     -10.625   1.088 -34.517  1.00  0.00     0.293 HD
ENDBRANCH   9  12
ENDBRANCH   3   4
ENDBRANCH   2   3
BRANCH   2  14
ATOM     14  C   UNL     1      -4.926   1.467 -29.755  1.00  0.00     0.345 C 
ATOM     15  O   UNL     1      -4.494   1.554 -28.614  1.00  0.00    -0.248 OA
BRANCH  14  16
ATOM     16  O   UNL     1      -4.320   2.097 -30.790  1.00  0.00    -0.478 OA
ATOM     17  H   UNL     1      -3.559   1.599 -31.177  1.00  0.00     0.296 HD
ENDBRANCH  14  16
ENDBRANCH   2  14
ENDBRANCH   1   2
BRANCH   1  18
ATOM     18  C   UNL     1      -5.386  -1.568 -30.066  1.00  0.00     0.331 C 
ATOM     19  O   UNL     1      -4.224  -1.923 -29.945  1.00  0.00    -0.247 OA
BRANCH  18  20
ATOM     20  C   UNL     1      -6.556  -2.199 -29.434  1.00  0.00     0.094 C 
ATOM     21  C   UNL     1      -7.346  -3.011 -30.152  1.00  0.00     0.016 C 
BRANCH  21  22
ATOM     22  C   UNL     1      -8.543  -3.662 -29.606  1.00  0.00    -0.021 A 
ATOM     23  C   UNL     1      -9.358  -4.489 -30.397  1.00  0.00     0.058 A 
ATOM     24  C   UNL     1      -8.840  -3.504 -28.243  1.00  0.00     0.012 A 
ATOM     25  C   UNL     1     -10.457  -5.120 -29.824  1.00  0.00     0.157 A 
ATOM     26  C   UNL     1      -9.950  -4.139 -27.678  1.00  0.00     0.051 A 
ATOM     27  C   UNL     1     -10.749  -4.941 -28.475  1.00  0.00     0.157 A 
BRANCH  25  28
ATOM     28  O   UNL     1     -11.280  -5.937 -30.548  1.00  0.00    -0.504 OA
ATOM     29  H   UNL     1     -10.881  -6.078 -31.424  1.00  0.00     0.293 HD
ENDBRANCH  25  28
BRANCH  27  30
ATOM     30  O   UNL     1     -11.828  -5.567 -27.921  1.00  0.00    -0.504 OA
ATOM     31  H   UNL     1     -12.586  -4.987 -28.136  1.00  0.00     0.293 HD
ENDBRANCH  27  30
ENDBRANCH  21  22
ENDBRANCH  18  20
ENDBRANCH   1  18
TORSDOF 12
ENDMDL
MODEL 9
REMARK VINA RESULT:      -7.5      2.470      4.972
REMARK SMILES O=C(/C=C/c1ccc(O)c(O)c1)O[C@H](Cc1ccc(O)c(O)c1)C(=O)O
REMARK SMILES IDX 13 1 14 2 15 3 16 4 17 5 18 6 19 7 23 8 21 9 20 10 22 12
REMARK SMILES IDX 24 14 25 15 26 16 2 18 1 19 3 20 4 21 5 22 12 23 6 24 10 25
REMARK SMILES IDX 7 26 8 27 11 28 9 30
REMARK H PARENT 20 11 22 13 26 17 11 29 9 31
ROOT
ATOM      1  O   UNL     1      -9.495  -2.376 -28.729  1.00  0.00    -0.447 OA
ENDROOT
BRANCH   1   2
ATOM      2  C   UNL     1      -9.022  -3.179 -29.823  1.00  0.00     0.290 C 
BRANCH   2   3
ATOM      3  C   UNL     1      -9.798  -2.774 -31.088  1.00  0.00     0.093 C 
BRANCH   3   4
ATOM      4  C   UNL     1      -9.401  -1.410 -31.613  1.00  0.00    -0.040 A 
ATOM      5  C   UNL     1      -8.044  -1.063 -31.729  1.00  0.00     0.008 A 
ATOM      6  C   UNL     1      -7.662   0.188 -32.224  1.00  0.00     0.050 A 
ATOM      7  C   UNL     1      -8.643   1.093 -32.606  1.00  0.00     0.157 A 
ATOM      8  C   UNL     1     -10.377  -0.476 -31.989  1.00  0.00     0.054 A 
ATOM      9  C   UNL     1      -9.990   0.759 -32.488  1.00  0.00     0.157 A 
BRANCH   7  10
ATOM     10  O   UNL     1      -8.335   2.329 -33.105  1.00  0.00    -0.504 OA
ATOM     11  H   UNL     1      -7.407   2.314 -33.395  1.00  0.00     0.293 HD
ENDBRANCH   7  10
BRANCH   9  12
ATOM     12  O   UNL     1     -10.949   1.653 -32.869  1.00  0.00    -0.504 OA
ATOM     13  H   UNL     1     -11.680   1.513 -32.234  1.00  0.00     0.293 HD
ENDBRANCH   9  12
ENDBRANCH   3   4
ENDBRANCH   2   3
BRANCH   2  14
ATOM     14  C   UNL     1      -9.217  -4.680 -29.558  1.00  0.00     0.345 C 
ATOM     15  O   UNL     1      -9.663  -5.476 -30.372  1.00  0.00    -0.248 OA
BRANCH  14  16
ATOM     16  O   UNL     1      -8.836  -5.074 -28.319  1.00  0.00    -0.478 OA
ATOM     17  H   UNL     1      -8.174  -5.807 -28.314  1.00  0.00     0.296 HD
ENDBRANCH  14  16
ENDBRANCH   2  14
ENDBRANCH   1   2
BRANCH   1  18
ATOM     18  C   UNL     1      -8.600  -2.177 -27.736  1.00  0.00     0.331 C 
ATOM     19  O   UNL     1      -8.786  -2.454 -26.561  1.00  0.00    -0.247 OA
BRANCH  18  20
ATOM     20  C   UNL     1      -7.405  -1.523 -28.294  1.00  0.00     0.094 C 
ATOM     21  C   UNL     1      -6.198  -2.080 -28.121  1.00  0.00     0.016 C 
BRANCH  21  22
ATOM     22  C   UNL     1      -4.955  -1.484 -28.625  1.00  0.00    -0.021 A 
ATOM     23  C   UNL     1      -4.630  -1.502 -29.991  1.00  0.00     0.058 A 
ATOM     24  C   UNL     1      -4.104  -0.823 -27.724  1.00  0.00     0.012 A 
ATOM     25  C   UNL     1      -3.461  -0.886 -30.428  1.00  0.00     0.157 A 
ATOM     26  C   UNL     1      -2.930  -0.211 -28.171  1.00  0.00     0.051 A 
ATOM     27  C   UNL     1      -2.619  -0.249 -29.521  1.00  0.00     0.157 A 
BRANCH  25  28
ATOM     28  O   UNL     1      -3.100  -0.872 -31.746  1.00  0.00    -0.504 OA
ATOM     29  H   UNL     1      -3.555  -0.132 -32.182  1.00  0.00     0.293 HD
ENDBRANCH  25  28
BRANCH  27  30
ATOM     30  O   UNL     1      -1.477   0.356 -29.959  1.00  0.00    -0.504 OA
ATOM     31  H   UNL     1      -0.829  -0.372 -30.040  1.00  0.00     0.293 HD
ENDBRANCH  27  30
ENDBRANCH  21  22
ENDBRANCH  18  20
ENDBRANCH   1  18
TORSDOF 12
ENDMDL
MODEL 10
REMARK VINA RESULT:      -7.5      2.317      4.122
REMARK SMILES O=C(/C=C/c1ccc(O)c(O)c1)O[C@H](Cc1ccc(O)c(O)c1)C(=O)O
REMARK SMILES IDX 13 1 14 2 15 3 16 4 17 5 18 6 19 7 23 8 21 9 20 10 22 12
REMARK SMILES IDX 24 14 25 15 26 16 2 18 1 19 3 20 4 21 5 22 12 23 6 24 10 25
REMARK SMILES IDX 7 26 8 27 11 28 9 30
REMARK H PARENT 20 11 22 13 26 17 11 29 9 31
ROOT
ATOM      1  O   UNL     1      -6.621  -0.419 -31.310  1.00  0.00    -0.447 OA
ENDROOT
BRANCH   1   2
ATOM      2  C   UNL     1      -7.074  -1.229 -30.212  1.00  0.00     0.290 C 
BRANCH   2   3
ATOM      3  C   UNL     1      -5.891  -2.082 -29.723  1.00  0.00     0.093 C 
BRANCH   3   4
ATOM      4  C   UNL     1      -4.739  -1.250 -29.199  1.00  0.00    -0.040 A 
ATOM      5  C   UNL     1      -4.735  -0.806 -27.865  1.00  0.00     0.008 A 
ATOM      6  C   UNL     1      -3.672  -0.047 -27.364  1.00  0.00     0.050 A 
ATOM      7  C   UNL     1      -2.609   0.265 -28.201  1.00  0.00     0.157 A 
ATOM      8  C   UNL     1      -3.664  -0.909 -30.033  1.00  0.00     0.054 A 
ATOM      9  C   UNL     1      -2.609  -0.165 -29.525  1.00  0.00     0.157 A 
BRANCH   7  10
ATOM     10  O   UNL     1      -1.537   0.996 -27.770  1.00  0.00    -0.504 OA
ATOM     11  H   UNL     1      -1.345   0.738 -26.851  1.00  0.00     0.293 HD
ENDBRANCH   7  10
BRANCH   9  12
ATOM     12  O   UNL     1      -1.559   0.143 -30.342  1.00  0.00    -0.504 OA
ATOM     13  H   UNL     1      -1.468   1.114 -30.268  1.00  0.00     0.293 HD
ENDBRANCH   9  12
ENDBRANCH   3   4
ENDBRANCH   2   3
BRANCH   2  14
ATOM     14  C   UNL     1      -8.237  -2.145 -30.618  1.00  0.00     0.345 C 
ATOM     15  O   UNL     1      -8.767  -2.963 -29.879  1.00  0.00    -0.248 OA
BRANCH  14  16
ATOM     16  O   UNL     1      -8.657  -1.970 -31.894  1.00  0.00    -0.478 OA
ATOM     17  H   UNL     1      -8.028  -1.459 -32.460  1.00  0.00     0.296 HD
ENDBRANCH  14  16
ENDBRANCH   2  14
ENDBRANCH   1   2
BRANCH   1  18
ATOM     18  C   UNL     1      -7.044   0.865 -31.288  1.00  0.00     0.331 C 
ATOM     19  O   UNL     1      -8.198   1.223 -31.468  1.00  0.00    -0.247 OA
BRANCH  18  20
ATOM     20  C   UNL     1      -5.885   1.746 -31.074  1.00  0.00     0.094 C 
ATOM     21  C   UNL     1      -5.872   2.590 -30.031  1.00  0.00     0.016 C 
BRANCH  21  22
ATOM     22  C   UNL     1      -4.768   3.517 -29.758  1.00  0.00    -0.021 A 
ATOM     23  C   UNL     1      -4.445   4.560 -30.641  1.00  0.00     0.058 A 
ATOM     24  C   UNL     1      -4.062   3.395 -28.550  1.00  0.00     0.012 A 
ATOM     25  C   UNL     1      -3.418   5.441 -30.318  1.00  0.00     0.157 A 
ATOM     26  C   UNL     1      -3.029   4.282 -28.236  1.00  0.00     0.051 A 
ATOM     27  C   UNL     1      -2.715   5.298 -29.125  1.00  0.00     0.157 A 
BRANCH  25  28
ATOM     28  O   UNL     1      -3.065   6.474 -31.141  1.00  0.00    -0.504 OA
ATOM     29  H   UNL     1      -3.872   6.827 -31.554  1.00  0.00     0.293 HD
ENDBRANCH  25  28
BRANCH  27  30
ATOM     30  O   UNL     1      -1.712   6.169 -28.815  1.00  0.00    -0.504 OA
ATOM     31  H   UNL     1      -1.816   6.901 -29.455  1.00  0.00     0.293 HD
ENDBRANCH  27  30
ENDBRANCH  21  22
ENDBRANCH  18  20
ENDBRANCH   1  18
TORSDOF 12
ENDMDL
