MODEL 1
REMARK VINA RESULT:      -8.3      0.000      0.000
REMARK SMILES O=C(/C=C/c1ccc(O)c(O)c1)O[C@@H]1C[C@](O)(C(=O)O)C[C@@H](O)[C@H]1O
REMARK SMILES IDX 2 1 1 2 13 3 14 4 21 5 22 6 16 7 24 8 15 9 23 10 17 12 18 14
REMARK SMILES IDX 19 15 20 16 25 18 3 20 4 21 5 22 12 23 6 24 10 25 7 26 8 27
REMARK SMILES IDX 11 28 9 30
REMARK H PARENT 23 11 17 13 20 17 25 19 11 29 9 31
ROOT
ATOM      1  C   UNL     1      -4.863   2.985 -30.314  1.00  0.00     0.331 C 
ATOM      2  O   UNL     1      -4.632   4.169 -30.518  1.00  0.00    -0.247 OA
ENDROOT
BRANCH   1   3
ATOM      3  O   UNL     1      -3.985   2.082 -29.817  1.00  0.00    -0.456 OA
BRANCH   3   4
ATOM      4  C   UNL     1      -4.540   0.797 -29.465  1.00  0.00     0.211 C 
ATOM      5  C   UNL     1      -4.169  -1.812 -28.087  1.00  0.00     0.082 C 
ATOM      6  C   UNL     1      -4.069  -1.704 -29.608  1.00  0.00     0.150 C 
ATOM      7  C   UNL     1      -5.056  -0.711 -27.493  1.00  0.00     0.167 C 
ATOM      8  C   UNL     1      -3.645  -0.299 -30.070  1.00  0.00     0.184 C 
ATOM      9  C   UNL     1      -4.594   0.675 -27.939  1.00  0.00     0.095 C 
BRANCH   6  10
ATOM     10  O   UNL     1      -5.323  -2.030 -30.229  1.00  0.00    -0.390 OA
ATOM     11  H   UNL     1      -5.726  -2.776 -29.738  1.00  0.00     0.211 HD
ENDBRANCH   6  10
BRANCH   7  12
ATOM     12  O   UNL     1      -6.411  -0.935 -27.945  1.00  0.00    -0.378 OA
ATOM     13  H   UNL     1      -6.471  -1.870 -28.237  1.00  0.00     0.212 HD
ENDBRANCH   7  12
BRANCH   7  14
ATOM     14  C   UNL     1      -5.030  -0.831 -25.961  1.00  0.00     0.335 C 
ATOM     15  O   UNL     1      -5.477  -1.769 -25.322  1.00  0.00    -0.249 OA
BRANCH  14  16
ATOM     16  O   UNL     1      -4.461   0.258 -25.385  1.00  0.00    -0.479 OA
ATOM     17  H   UNL     1      -4.509   0.176 -24.405  1.00  0.00     0.296 HD
ENDBRANCH  14  16
ENDBRANCH   7  14
BRANCH   8  18
ATOM     18  O   UNL     1      -3.719  -0.245 -31.502  1.00  0.00    -0.387 OA
ATOM     19  H   UNL     1      -3.263   0.582 -31.762  1.00  0.00     0.211 HD
ENDBRANCH   8  18
ENDBRANCH   3   4
ENDBRANCH   1   3
BRANCH   1  20
ATOM     20  C   UNL     1      -6.165   2.370 -30.641  1.00  0.00     0.094 C 
ATOM     21  C   UNL     1      -6.536   2.004 -31.879  1.00  0.00     0.016 C 
BRANCH  21  22
ATOM     22  C   UNL     1      -7.832   1.383 -32.181  1.00  0.00    -0.021 A 
ATOM     23  C   UNL     1      -8.763   1.082 -31.174  1.00  0.00     0.058 A 
ATOM     24  C   UNL     1      -8.166   1.139 -33.522  1.00  0.00     0.012 A 
ATOM     25  C   UNL     1      -9.991   0.524 -31.520  1.00  0.00     0.157 A 
ATOM     26  C   UNL     1      -9.400   0.576 -33.860  1.00  0.00     0.051 A 
ATOM     27  C   UNL     1     -10.301   0.272 -32.852  1.00  0.00     0.157 A 
BRANCH  25  28
ATOM     28  O   UNL     1     -10.933   0.211 -30.578  1.00  0.00    -0.504 OA
ATOM     29  H   UNL     1     -11.084   0.995 -30.024  1.00  0.00     0.293 HD
ENDBRANCH  25  28
BRANCH  27  30
ATOM     30  O   UNL     1     -11.508  -0.274 -33.180  1.00  0.00    -0.504 OA
ATOM     31  H   UNL     1     -11.428  -0.494 -34.130  1.00  0.00     0.293 HD
ENDBRANCH  27  30
ENDBRANCH  21  22
ENDBRANCH   1  20
TORSDOF 11
ENDMDL
MODEL 2
REMARK VINA RESULT:      -8.0      1.736      4.225
REMARK SMILES O=C(/C=C/c1ccc(O)c(O)c1)O[C@@H]1C[C@](O)(C(=O)O)C[C@@H](O)[C@H]1O
REMARK SMILES IDX 2 1 1 2 13 3 14 4 21 5 22 6 16 7 24 8 15 9 23 10 17 12 18 14
REMARK SMILES IDX 19 15 20 16 25 18 3 20 4 21 5 22 12 23 6 24 10 25 7 26 8 27
REMARK SMILES IDX 11 28 9 30
REMARK H PARENT 23 11 17 13 20 17 25 19 11 29 9 31
ROOT
ATOM      1  C   UNL     1      -6.934  -1.223 -27.148  1.00  0.00     0.331 C 
ATOM      2  O   UNL     1      -7.546  -1.518 -26.130  1.00  0.00    -0.247 OA
ENDROOT
BRANCH   1   3
ATOM      3  O   UNL     1      -5.632  -1.495 -27.394  1.00  0.00    -0.456 OA
BRANCH   3   4
ATOM      4  C   UNL     1      -4.855  -0.404 -27.931  1.00  0.00     0.211 C 
ATOM      5  C   UNL     1      -2.190   0.611 -28.777  1.00  0.00     0.082 C 
ATOM      6  C   UNL     1      -2.809   1.037 -27.446  1.00  0.00     0.150 C 
ATOM      7  C   UNL     1      -3.259   0.214 -29.803  1.00  0.00     0.167 C 
ATOM      8  C   UNL     1      -3.789  -0.011 -26.892  1.00  0.00     0.184 C 
ATOM      9  C   UNL     1      -4.198  -0.853 -29.241  1.00  0.00     0.095 C 
BRANCH   6  10
ATOM     10  O   UNL     1      -3.504   2.287 -27.582  1.00  0.00    -0.390 OA
ATOM     11  H   UNL     1      -4.299   2.263 -27.010  1.00  0.00     0.211 HD
ENDBRANCH   6  10
BRANCH   7  12
ATOM     12  O   UNL     1      -4.019   1.396 -30.139  1.00  0.00    -0.378 OA
ATOM     13  H   UNL     1      -4.841   1.099 -30.585  1.00  0.00     0.212 HD
ENDBRANCH   7  12
BRANCH   7  14
ATOM     14  C   UNL     1      -2.558  -0.290 -31.074  1.00  0.00     0.335 C 
ATOM     15  O   UNL     1      -3.051  -1.043 -31.897  1.00  0.00    -0.249 OA
BRANCH  14  16
ATOM     16  O   UNL     1      -1.293   0.191 -31.170  1.00  0.00    -0.479 OA
ATOM     17  H   UNL     1      -1.305   1.064 -31.626  1.00  0.00     0.296 HD
ENDBRANCH  14  16
ENDBRANCH   7  14
BRANCH   8  18
ATOM     18  O   UNL     1      -4.429   0.531 -25.728  1.00  0.00    -0.387 OA
ATOM     19  H   UNL     1      -5.254   0.952 -26.048  1.00  0.00     0.211 HD
ENDBRANCH   8  18
ENDBRANCH   3   4
ENDBRANCH   1   3
BRANCH   1  20
ATOM     20  C   UNL     1      -7.562  -0.468 -28.251  1.00  0.00     0.094 C 
ATOM     21  C   UNL     1      -8.233  -1.036 -29.266  1.00  0.00     0.016 C 
BRANCH  21  22
ATOM     22  C   UNL     1      -8.860  -0.266 -30.348  1.00  0.00    -0.021 A 
ATOM     23  C   UNL     1      -9.963  -0.758 -31.066  1.00  0.00     0.058 A 
ATOM     24  C   UNL     1      -8.375   1.021 -30.628  1.00  0.00     0.012 A 
ATOM     25  C   UNL     1     -10.540   0.028 -32.059  1.00  0.00     0.157 A 
ATOM     26  C   UNL     1      -8.960   1.802 -31.630  1.00  0.00     0.051 A 
ATOM     27  C   UNL     1     -10.038   1.295 -32.338  1.00  0.00     0.157 A 
BRANCH  25  28
ATOM     28  O   UNL     1     -11.614  -0.403 -32.789  1.00  0.00    -0.504 OA
ATOM     29  H   UNL     1     -11.905   0.325 -33.364  1.00  0.00     0.293 HD
ENDBRANCH  25  28
BRANCH  27  30
ATOM     30  O   UNL     1     -10.612   2.058 -33.313  1.00  0.00    -0.504 OA
ATOM     31  H   UNL     1     -10.850   2.893 -32.863  1.00  0.00     0.293 HD
ENDBRANCH  27  30
ENDBRANCH  21  22
ENDBRANCH   1  20
TORSDOF 11
ENDMDL
MODEL 3
REMARK VINA RESULT:      -7.8      4.069      6.587
REMARK SMILES O=C(/C=C/c1ccc(O)c(O)c1)O[C@@H]1C[C@](O)(C(=O)O)C[C@@H](O)[C@H]1O
REMARK SMILES IDX 2 1 1 2 13 3 14 4 21 5 22 6 16 7 24 8 15 9 23 10 17 12 18 14
REMARK SMILES IDX 19 15 20 16 25 18 3 20 4 21 5 22 12 23 6 24 10 25 7 26 8 27
REMARK SMILES IDX 11 28 9 30
REMARK H PARENT 23 11 17 13 20 17 25 19 11 29 9 31
ROOT
ATOM      1  C   UNL     1      -6.118  -2.091 -29.680  1.00  0.00     0.331 C 
ATOM      2  O   UNL     1      -5.071  -1.873 -29.086  1.00  0.00    -0.247 OA
ENDROOT
BRANCH   1   3
ATOM      3  O   UNL     1      -6.407  -1.701 -30.944  1.00  0.00    -0.456 OA
BRANCH   3   4
ATOM      4  C   UNL     1      -7.034  -0.407 -31.071  1.00  0.00     0.211 C 
ATOM      5  C   UNL     1      -7.941   1.784 -32.867  1.00  0.00     0.082 C 
ATOM      6  C   UNL     1      -6.663   1.921 -32.041  1.00  0.00     0.150 C 
ATOM      7  C   UNL     1      -8.937   0.813 -32.220  1.00  0.00     0.167 C 
ATOM      8  C   UNL     1      -6.025   0.559 -31.716  1.00  0.00     0.184 C 
ATOM      9  C   UNL     1      -8.290  -0.543 -31.940  1.00  0.00     0.095 C 
BRANCH   6  10
ATOM     10  O   UNL     1      -6.922   2.610 -30.807  1.00  0.00    -0.390 OA
ATOM     11  H   UNL     1      -6.066   2.911 -30.436  1.00  0.00     0.211 HD
ENDBRANCH   6  10
BRANCH   7  12
ATOM     12  O   UNL     1      -9.390   1.396 -30.978  1.00  0.00    -0.378 OA
ATOM     13  H   UNL     1     -10.134   2.000 -31.193  1.00  0.00     0.212 HD
ENDBRANCH   7  12
BRANCH   7  14
ATOM     14  C   UNL     1     -10.149   0.657 -33.153  1.00  0.00     0.335 C 
ATOM     15  O   UNL     1     -10.314  -0.257 -33.943  1.00  0.00    -0.249 OA
BRANCH  14  16
ATOM     16  O   UNL     1     -11.023   1.685 -33.011  1.00  0.00    -0.479 OA
ATOM     17  H   UNL     1     -11.235   1.810 -32.058  1.00  0.00     0.296 HD
ENDBRANCH  14  16
ENDBRANCH   7  14
BRANCH   8  18
ATOM     18  O   UNL     1      -4.923   0.771 -30.823  1.00  0.00    -0.387 OA
ATOM     19  H   UNL     1      -4.137   0.398 -31.274  1.00  0.00     0.211 HD
ENDBRANCH   8  18
ENDBRANCH   3   4
ENDBRANCH   1   3
BRANCH   1  20
ATOM     20  C   UNL     1      -7.249  -2.797 -29.045  1.00  0.00     0.094 C 
ATOM     21  C   UNL     1      -8.095  -3.608 -29.700  1.00  0.00     0.016 C 
BRANCH  21  22
ATOM     22  C   UNL     1      -9.207  -4.310 -29.047  1.00  0.00    -0.021 A 
ATOM     23  C   UNL     1      -9.684  -3.930 -27.782  1.00  0.00     0.058 A 
ATOM     24  C   UNL     1      -9.844  -5.354 -29.738  1.00  0.00     0.012 A 
ATOM     25  C   UNL     1     -10.763  -4.609 -27.224  1.00  0.00     0.157 A 
ATOM     26  C   UNL     1     -10.925  -6.031 -29.168  1.00  0.00     0.051 A 
ATOM     27  C   UNL     1     -11.374  -5.652 -27.912  1.00  0.00     0.157 A 
BRANCH  25  28
ATOM     28  O   UNL     1     -11.266  -4.280 -25.995  1.00  0.00    -0.504 OA
ATOM     29  H   UNL     1     -11.962  -4.920 -25.768  1.00  0.00     0.293 HD
ENDBRANCH  25  28
BRANCH  27  30
ATOM     30  O   UNL     1     -12.432  -6.311 -27.356  1.00  0.00    -0.504 OA
ATOM     31  H   UNL     1     -12.249  -6.302 -26.396  1.00  0.00     0.293 HD
ENDBRANCH  27  30
ENDBRANCH  21  22
ENDBRANCH   1  20
TORSDOF 11
ENDMDL
MODEL 4
REMARK VINA RESULT:      -7.8      3.773      5.513
REMARK SMILES O=C(/C=C/c1ccc(O)c(O)c1)O[C@@H]1C[C@](O)(C(=O)O)C[C@@H](O)[C@H]1O
REMARK SMILES IDX 2 1 1 2 13 3 14 4 21 5 22 6 16 7 24 8 15 9 23 10 17 12 18 14
REMARK SMILES IDX 19 15 20 16 25 18 3 20 4 21 5 22 12 23 6 24 10 25 7 26 8 27
REMARK SMILES IDX 11 28 9 30
REMARK H PARENT 23 11 17 13 20 17 25 19 11 29 9 31
ROOT
ATOM      1  C   UNL     1      -7.331  -0.535 -27.291  1.00  0.00     0.331 C 
ATOM      2  O   UNL     1      -7.887   0.468 -26.865  1.00  0.00    -0.247 OA
ENDROOT
BRANCH   1   3
ATOM      3  O   UNL     1      -6.014  -0.821 -27.169  1.00  0.00    -0.456 OA
BRANCH   3   4
ATOM      4  C   UNL     1      -5.110   0.118 -27.790  1.00  0.00     0.211 C 
ATOM      5  C   UNL     1      -2.484   0.588 -29.106  1.00  0.00     0.082 C 
ATOM      6  C   UNL     1      -2.721   0.999 -27.653  1.00  0.00     0.150 C 
ATOM      7  C   UNL     1      -3.790   0.554 -29.910  1.00  0.00     0.167 C 
ATOM      8  C   UNL     1      -3.805   0.146 -26.972  1.00  0.00     0.184 C 
ATOM      9  C   UNL     1      -4.838  -0.326 -29.231  1.00  0.00     0.095 C 
BRANCH   6  10
ATOM     10  O   UNL     1      -3.105   2.381 -27.568  1.00  0.00    -0.390 OA
ATOM     11  H   UNL     1      -3.694   2.491 -26.793  1.00  0.00     0.211 HD
ENDBRANCH   6  10
BRANCH   7  12
ATOM     12  O   UNL     1      -4.289   1.907 -30.012  1.00  0.00    -0.378 OA
ATOM     13  H   UNL     1      -3.970   2.396 -29.224  1.00  0.00     0.212 HD
ENDBRANCH   7  12
BRANCH   7  14
ATOM     14  C   UNL     1      -3.482   0.044 -31.327  1.00  0.00     0.335 C 
ATOM     15  O   UNL     1      -3.176  -1.102 -31.610  1.00  0.00    -0.249 OA
BRANCH  14  16
ATOM     16  O   UNL     1      -3.569   1.039 -32.246  1.00  0.00    -0.479 OA
ATOM     17  H   UNL     1      -4.252   1.690 -31.965  1.00  0.00     0.296 HD
ENDBRANCH  14  16
ENDBRANCH   7  14
BRANCH   8  18
ATOM     18  O   UNL     1      -4.066   0.691 -25.670  1.00  0.00    -0.387 OA
ATOM     19  H   UNL     1      -3.747   1.617 -25.699  1.00  0.00     0.211 HD
ENDBRANCH   8  18
ENDBRANCH   3   4
ENDBRANCH   1   3
BRANCH   1  20
ATOM     20  C   UNL     1      -8.055  -1.570 -28.055  1.00  0.00     0.094 C 
ATOM     21  C   UNL     1      -8.745  -2.576 -27.495  1.00  0.00     0.016 C 
BRANCH  21  22
ATOM     22  C   UNL     1      -9.469  -3.590 -28.273  1.00  0.00    -0.021 A 
ATOM     23  C   UNL     1     -10.351  -4.500 -27.668  1.00  0.00     0.058 A 
ATOM     24  C   UNL     1      -9.314  -3.606 -29.668  1.00  0.00     0.012 A 
ATOM     25  C   UNL     1     -11.038  -5.417 -28.458  1.00  0.00     0.157 A 
ATOM     26  C   UNL     1     -10.005  -4.533 -30.453  1.00  0.00     0.051 A 
ATOM     27  C   UNL     1     -10.861  -5.434 -29.837  1.00  0.00     0.157 A 
BRANCH  25  28
ATOM     28  O   UNL     1     -11.907  -6.326 -27.919  1.00  0.00    -0.504 OA
ATOM     29  H   UNL     1     -12.320  -6.823 -28.646  1.00  0.00     0.293 HD
ENDBRANCH  25  28
BRANCH  27  30
ATOM     30  O   UNL     1     -11.539  -6.337 -30.603  1.00  0.00    -0.504 OA
ATOM     31  H   UNL     1     -11.218  -7.209 -30.296  1.00  0.00     0.293 HD
ENDBRANCH  27  30
ENDBRANCH  21  22
ENDBRANCH   1  20
TORSDOF 11
ENDMDL
MODEL 5
REMARK VINA RESULT:      -7.8      4.458      7.050
REMARK SMILES O=C(/C=C/c1ccc(O)c(O)c1)O[C@@H]1C[C@](O)(C(=O)O)C[C@@H](O)[C@H]1O
REMARK SMILES IDX 2 1 1 2 13 3 14 4 21 5 22 6 16 7 24 8 15 9 23 10 17 12 18 14
REMARK SMILES IDX 19 15 20 16 25 18 3 20 4 21 5 22 12 23 6 24 10 25 7 26 8 27
REMARK SMILES IDX 11 28 9 30
REMARK H PARENT 23 11 17 13 20 17 25 19 11 29 9 31
ROOT
ATOM      1  C   UNL     1      -7.043  -2.436 -29.356  1.00  0.00     0.331 C 
ATOM      2  O   UNL     1      -6.098  -2.106 -28.652  1.00  0.00    -0.247 OA
ENDROOT
BRANCH   1   3
ATOM      3  O   UNL     1      -7.203  -2.123 -30.663  1.00  0.00    -0.456 OA
BRANCH   3   4
ATOM      4  C   UNL     1      -7.553  -0.751 -30.940  1.00  0.00     0.211 C 
ATOM      5  C   UNL     1      -7.999   1.370 -32.978  1.00  0.00     0.082 C 
ATOM      6  C   UNL     1      -6.716   1.333 -32.148  1.00  0.00     0.150 C 
ATOM      7  C   UNL     1      -9.170   0.699 -32.249  1.00  0.00     0.167 C 
ATOM      8  C   UNL     1      -6.369  -0.086 -31.667  1.00  0.00     0.184 C 
ATOM      9  C   UNL     1      -8.813  -0.721 -31.812  1.00  0.00     0.095 C 
BRANCH   6  10
ATOM     10  O   UNL     1      -6.823   2.191 -31.001  1.00  0.00    -0.390 OA
ATOM     11  H   UNL     1      -6.167   1.900 -30.334  1.00  0.00     0.211 HD
ENDBRANCH   6  10
BRANCH   7  12
ATOM     12  O   UNL     1      -9.489   1.495 -31.085  1.00  0.00    -0.378 OA
ATOM     13  H   UNL     1      -9.307   2.432 -31.313  1.00  0.00     0.212 HD
ENDBRANCH   7  12
BRANCH   7  14
ATOM     14  C   UNL     1     -10.392   0.694 -33.181  1.00  0.00     0.335 C 
ATOM     15  O   UNL     1     -10.704  -0.222 -33.924  1.00  0.00    -0.249 OA
BRANCH  14  16
ATOM     16  O   UNL     1     -11.087   1.856 -33.100  1.00  0.00    -0.479 OA
ATOM     17  H   UNL     1     -11.920   1.708 -32.596  1.00  0.00     0.296 HD
ENDBRANCH  14  16
ENDBRANCH   7  14
BRANCH   8  18
ATOM     18  O   UNL     1      -5.243  -0.008 -30.781  1.00  0.00    -0.387 OA
ATOM     19  H   UNL     1      -5.252  -0.840 -30.264  1.00  0.00     0.211 HD
ENDBRANCH   8  18
ENDBRANCH   3   4
ENDBRANCH   1   3
BRANCH   1  20
ATOM     20  C   UNL     1      -8.186  -3.207 -28.826  1.00  0.00     0.094 C 
ATOM     21  C   UNL     1      -9.080  -2.724 -27.950  1.00  0.00     0.016 C 
BRANCH  21  22
ATOM     22  C   UNL     1     -10.217  -3.504 -27.445  1.00  0.00    -0.021 A 
ATOM     23  C   UNL     1     -10.430  -4.839 -27.828  1.00  0.00     0.058 A 
ATOM     24  C   UNL     1     -11.079  -2.912 -26.508  1.00  0.00     0.012 A 
ATOM     25  C   UNL     1     -11.504  -5.543 -27.292  1.00  0.00     0.157 A 
ATOM     26  C   UNL     1     -12.157  -3.626 -25.978  1.00  0.00     0.051 A 
ATOM     27  C   UNL     1     -12.360  -4.938 -26.378  1.00  0.00     0.157 A 
BRANCH  25  28
ATOM     28  O   UNL     1     -11.757  -6.844 -27.633  1.00  0.00    -0.504 OA
ATOM     29  H   UNL     1     -12.608  -6.877 -28.102  1.00  0.00     0.293 HD
ENDBRANCH  25  28
BRANCH  27  30
ATOM     30  O   UNL     1     -13.410  -5.637 -25.858  1.00  0.00    -0.504 OA
ATOM     31  H   UNL     1     -13.402  -5.420 -24.905  1.00  0.00     0.293 HD
ENDBRANCH  27  30
ENDBRANCH  21  22
ENDBRANCH   1  20
TORSDOF 11
ENDMDL
MODEL 6
REMARK VINA RESULT:      -7.8      5.367      7.115
REMARK SMILES O=C(/C=C/c1ccc(O)c(O)c1)O[C@@H]1C[C@](O)(C(=O)O)C[C@@H](O)[C@H]1O
REMARK SMILES IDX 2 1 1 2 13 3 14 4 21 5 22 6 16 7 24 8 15 9 23 10 17 12 18 14
REMARK SMILES IDX 19 15 20 16 25 18 3 20 4 21 5 22 12 23 6 24 10 25 7 26 8 27
REMARK SMILES IDX 11 28 9 30
REMARK H PARENT 23 11 17 13 20 17 25 19 11 29 9 31
ROOT
ATOM      1  C   UNL     1     -10.161  -5.012 -29.984  1.00  0.00     0.331 C 
ATOM      2  O   UNL     1     -10.908  -5.810 -30.534  1.00  0.00    -0.247 OA
ENDROOT
BRANCH   1   3
ATOM      3  O   UNL     1      -9.730  -5.086 -28.703  1.00  0.00    -0.456 OA
BRANCH   3   4
ATOM      4  C   UNL     1     -10.718  -4.795 -27.692  1.00  0.00     0.211 C 
ATOM      5  C   UNL     1     -11.421  -4.743 -24.802  1.00  0.00     0.082 C 
ATOM      6  C   UNL     1     -11.947  -5.845 -25.721  1.00  0.00     0.150 C 
ATOM      7  C   UNL     1     -11.111  -3.455 -25.576  1.00  0.00     0.167 C 
ATOM      8  C   UNL     1     -11.025  -6.095 -26.926  1.00  0.00     0.184 C 
ATOM      9  C   UNL     1     -10.166  -3.723 -26.746  1.00  0.00     0.095 C 
BRANCH   6  10
ATOM     10  O   UNL     1     -13.260  -5.522 -26.209  1.00  0.00    -0.390 OA
ATOM     11  H   UNL     1     -13.277  -4.571 -26.443  1.00  0.00     0.211 HD
ENDBRANCH   6  10
BRANCH   7  12
ATOM     12  O   UNL     1     -12.358  -2.921 -26.076  1.00  0.00    -0.378 OA
ATOM     13  H   UNL     1     -12.146  -2.108 -26.582  1.00  0.00     0.212 HD
ENDBRANCH   7  12
BRANCH   7  14
ATOM     14  C   UNL     1     -10.502  -2.432 -24.604  1.00  0.00     0.335 C 
ATOM     15  O   UNL     1      -9.315  -2.165 -24.518  1.00  0.00    -0.249 OA
BRANCH  14  16
ATOM     16  O   UNL     1     -11.451  -1.862 -23.818  1.00  0.00    -0.479 OA
ATOM     17  H   UNL     1     -11.068  -1.655 -22.936  1.00  0.00     0.296 HD
ENDBRANCH  14  16
ENDBRANCH   7  14
BRANCH   8  18
ATOM     18  O   UNL     1     -11.662  -7.032 -27.805  1.00  0.00    -0.387 OA
ATOM     19  H   UNL     1     -11.415  -7.920 -27.473  1.00  0.00     0.211 HD
ENDBRANCH   8  18
ENDBRANCH   3   4
ENDBRANCH   1   3
BRANCH   1  20
ATOM     20  C   UNL     1      -9.659  -3.804 -30.670  1.00  0.00     0.094 C 
ATOM     21  C   UNL     1     -10.306  -2.628 -30.694  1.00  0.00     0.016 C 
BRANCH  21  22
ATOM     22  C   UNL     1      -9.783  -1.435 -31.372  1.00  0.00    -0.021 A 
ATOM     23  C   UNL     1     -10.630  -0.415 -31.837  1.00  0.00     0.058 A 
ATOM     24  C   UNL     1      -8.393  -1.289 -31.504  1.00  0.00     0.012 A 
ATOM     25  C   UNL     1     -10.078   0.710 -32.442  1.00  0.00     0.157 A 
ATOM     26  C   UNL     1      -7.849  -0.156 -32.117  1.00  0.00     0.051 A 
ATOM     27  C   UNL     1      -8.700   0.833 -32.582  1.00  0.00     0.157 A 
BRANCH  25  28
ATOM     28  O   UNL     1     -10.857   1.732 -32.914  1.00  0.00    -0.504 OA
ATOM     29  H   UNL     1     -11.398   2.069 -32.179  1.00  0.00     0.293 HD
ENDBRANCH  25  28
BRANCH  27  30
ATOM     30  O   UNL     1      -8.170   1.942 -33.177  1.00  0.00    -0.504 OA
ATOM     31  H   UNL     1      -8.908   2.319 -33.696  1.00  0.00     0.293 HD
ENDBRANCH  27  30
ENDBRANCH  21  22
ENDBRANCH   1  20
TORSDOF 11
ENDMDL
MODEL 7
REMARK VINA RESULT:      -7.7      3.902      5.264
REMARK SMILES O=C(/C=C/c1ccc(O)c(O)c1)O[C@@H]1C[C@](O)(C(=O)O)C[C@@H](O)[C@H]1O
REMARK SMILES IDX 2 1 1 2 13 3 14 4 21 5 22 6 16 7 24 8 15 9 23 10 17 12 18 14
REMARK SMILES IDX 19 15 20 16 25 18 3 20 4 21 5 22 12 23 6 24 10 25 7 26 8 27
REMARK SMILES IDX 11 28 9 30
REMARK H PARENT 23 11 17 13 20 17 25 19 11 29 9 31
ROOT
ATOM      1  C   UNL     1      -7.137  -1.081 -31.064  1.00  0.00     0.331 C 
ATOM      2  O   UNL     1      -7.430  -0.360 -32.008  1.00  0.00    -0.247 OA
ENDROOT
BRANCH   1   3
ATOM      3  O   UNL     1      -5.896  -1.245 -30.550  1.00  0.00    -0.456 OA
BRANCH   3   4
ATOM      4  C   UNL     1      -5.615  -0.503 -29.344  1.00  0.00     0.211 C 
ATOM      5  C   UNL     1      -3.570   0.675 -27.533  1.00  0.00     0.082 C 
ATOM      6  C   UNL     1      -4.288  -0.625 -27.171  1.00  0.00     0.150 C 
ATOM      7  C   UNL     1      -4.414   1.551 -28.468  1.00  0.00     0.167 C 
ATOM      8  C   UNL     1      -4.773  -1.393 -28.412  1.00  0.00     0.184 C 
ATOM      9  C   UNL     1      -4.854   0.776 -29.709  1.00  0.00     0.095 C 
BRANCH   6  10
ATOM     10  O   UNL     1      -5.418  -0.367 -26.322  1.00  0.00    -0.390 OA
ATOM     11  H   UNL     1      -5.652  -1.198 -25.858  1.00  0.00     0.211 HD
ENDBRANCH   6  10
BRANCH   7  12
ATOM     12  O   UNL     1      -5.580   1.993 -27.737  1.00  0.00    -0.378 OA
ATOM     13  H   UNL     1      -6.233   2.313 -28.394  1.00  0.00     0.212 HD
ENDBRANCH   7  12
BRANCH   7  14
ATOM     14  C   UNL     1      -3.590   2.788 -28.859  1.00  0.00     0.335 C 
ATOM     15  O   UNL     1      -2.852   3.406 -28.109  1.00  0.00    -0.249 OA
BRANCH  14  16
ATOM     16  O   UNL     1      -3.795   3.136 -30.154  1.00  0.00    -0.479 OA
ATOM     17  H   UNL     1      -3.381   2.468 -30.746  1.00  0.00     0.296 HD
ENDBRANCH  14  16
ENDBRANCH   7  14
BRANCH   8  18
ATOM     18  O   UNL     1      -5.557  -2.514 -27.980  1.00  0.00    -0.387 OA
ATOM     19  H   UNL     1      -5.805  -2.997 -28.796  1.00  0.00     0.211 HD
ENDBRANCH   8  18
ENDBRANCH   3   4
ENDBRANCH   1   3
BRANCH   1  20
ATOM     20  C   UNL     1      -8.139  -1.921 -30.377  1.00  0.00     0.094 C 
ATOM     21  C   UNL     1      -8.063  -3.258 -30.283  1.00  0.00     0.016 C 
BRANCH  21  22
ATOM     22  C   UNL     1      -9.063  -4.075 -29.584  1.00  0.00    -0.021 A 
ATOM     23  C   UNL     1      -9.142  -4.114 -28.182  1.00  0.00     0.058 A 
ATOM     24  C   UNL     1     -10.001  -4.790 -30.345  1.00  0.00     0.012 A 
ATOM     25  C   UNL     1     -10.132  -4.879 -27.572  1.00  0.00     0.157 A 
ATOM     26  C   UNL     1     -10.991  -5.557 -29.723  1.00  0.00     0.051 A 
ATOM     27  C   UNL     1     -11.044  -5.596 -28.339  1.00  0.00     0.157 A 
BRANCH  25  28
ATOM     28  O   UNL     1     -10.252  -4.952 -26.211  1.00  0.00    -0.504 OA
ATOM     29  H   UNL     1     -11.180  -5.142 -25.995  1.00  0.00     0.293 HD
ENDBRANCH  25  28
BRANCH  27  30
ATOM     30  O   UNL     1     -12.011  -6.342 -27.730  1.00  0.00    -0.504 OA
ATOM     31  H   UNL     1     -11.974  -6.073 -26.791  1.00  0.00     0.293 HD
ENDBRANCH  27  30
ENDBRANCH  21  22
ENDBRANCH   1  20
TORSDOF 11
ENDMDL
MODEL 8
REMARK VINA RESULT:      -7.7      3.847      5.562
REMARK SMILES O=C(/C=C/c1ccc(O)c(O)c1)O[C@@H]1C[C@](O)(C(=O)O)C[C@@H](O)[C@H]1O
REMARK SMILES IDX 2 1 1 2 13 3 14 4 21 5 22 6 16 7 24 8 15 9 23 10 17 12 18 14
REMARK SMILES IDX 19 15 20 16 25 18 3 20 4 21 5 22 12 23 6 24 10 25 7 26 8 27
REMARK SMILES IDX 11 28 9 30
REMARK H PARENT 23 11 17 13 20 17 25 19 11 29 9 31
ROOT
ATOM      1  C   UNL     1      -8.424   0.244 -30.004  1.00  0.00     0.331 C 
ATOM      2  O   UNL     1      -8.582   0.835 -31.064  1.00  0.00    -0.247 OA
ENDROOT
BRANCH   1   3
ATOM      3  O   UNL     1      -7.492   0.536 -29.067  1.00  0.00    -0.456 OA
BRANCH   3   4
ATOM      4  C   UNL     1      -6.294   1.178 -29.554  1.00  0.00     0.211 C 
ATOM      5  C   UNL     1      -3.334   1.430 -29.403  1.00  0.00     0.082 C 
ATOM      6  C   UNL     1      -4.247   2.478 -28.767  1.00  0.00     0.150 C 
ATOM      7  C   UNL     1      -4.019   0.709 -30.571  1.00  0.00     0.167 C 
ATOM      8  C   UNL     1      -5.618   1.902 -28.375  1.00  0.00     0.184 C 
ATOM      9  C   UNL     1      -5.362   0.116 -30.148  1.00  0.00     0.095 C 
BRANCH   6  10
ATOM     10  O   UNL     1      -4.454   3.585 -29.659  1.00  0.00    -0.390 OA
ATOM     11  H   UNL     1      -4.728   4.362 -29.129  1.00  0.00     0.211 HD
ENDBRANCH   6  10
BRANCH   7  12
ATOM     12  O   UNL     1      -4.229   1.671 -31.629  1.00  0.00    -0.378 OA
ATOM     13  H   UNL     1      -3.708   2.471 -31.405  1.00  0.00     0.212 HD
ENDBRANCH   7  12
BRANCH   7  14
ATOM     14  C   UNL     1      -3.077  -0.388 -31.093  1.00  0.00     0.335 C 
ATOM     15  O   UNL     1      -3.344  -1.577 -31.144  1.00  0.00    -0.249 OA
BRANCH  14  16
ATOM     16  O   UNL     1      -1.881   0.124 -31.478  1.00  0.00    -0.479 OA
ATOM     17  H   UNL     1      -1.514   0.686 -30.758  1.00  0.00     0.296 HD
ENDBRANCH  14  16
ENDBRANCH   7  14
BRANCH   8  18
ATOM     18  O   UNL     1      -6.456   2.976 -27.926  1.00  0.00    -0.387 OA
ATOM     19  H   UNL     1      -6.658   3.508 -28.724  1.00  0.00     0.211 HD
ENDBRANCH   8  18
ENDBRANCH   3   4
ENDBRANCH   1   3
BRANCH   1  20
ATOM     20  C   UNL     1      -9.237  -0.931 -29.630  1.00  0.00     0.094 C 
ATOM     21  C   UNL     1      -8.766  -2.187 -29.575  1.00  0.00     0.016 C 
BRANCH  21  22
ATOM     22  C   UNL     1      -9.589  -3.340 -29.189  1.00  0.00    -0.021 A 
ATOM     23  C   UNL     1     -10.077  -4.254 -30.137  1.00  0.00     0.058 A 
ATOM     24  C   UNL     1      -9.842  -3.561 -27.826  1.00  0.00     0.012 A 
ATOM     25  C   UNL     1     -10.824  -5.349 -29.713  1.00  0.00     0.157 A 
ATOM     26  C   UNL     1     -10.596  -4.662 -27.410  1.00  0.00     0.051 A 
ATOM     27  C   UNL     1     -11.082  -5.546 -28.360  1.00  0.00     0.157 A 
BRANCH  25  28
ATOM     28  O   UNL     1     -11.324  -6.268 -30.594  1.00  0.00    -0.504 OA
ATOM     29  H   UNL     1     -10.826  -7.096 -30.488  1.00  0.00     0.293 HD
ENDBRANCH  25  28
BRANCH  27  30
ATOM     30  O   UNL     1     -11.815  -6.624 -27.954  1.00  0.00    -0.504 OA
ATOM     31  H   UNL     1     -11.938  -6.489 -26.994  1.00  0.00     0.293 HD
ENDBRANCH  27  30
ENDBRANCH  21  22
ENDBRANCH   1  20
TORSDOF 11
ENDMDL
MODEL 9
REMARK VINA RESULT:      -7.7      3.911      4.712
REMARK SMILES O=C(/C=C/c1ccc(O)c(O)c1)O[C@@H]1C[C@](O)(C(=O)O)C[C@@H](O)[C@H]1O
REMARK SMILES IDX 2 1 1 2 13 3 14 4 21 5 22 6 16 7 24 8 15 9 23 10 17 12 18 14
REMARK SMILES IDX 19 15 20 16 25 18 3 20 4 21 5 22 12 23 6 24 10 25 7 26 8 27
REMARK SMILES IDX 11 28 9 30
REMARK H PARENT 23 11 17 13 20 17 25 19 11 29 9 31
ROOT
ATOM      1  C   UNL     1      -7.822  -0.654 -30.888  1.00  0.00     0.331 C 
ATOM      2  O   UNL     1      -7.920  -0.557 -32.103  1.00  0.00    -0.247 OA
ENDROOT
BRANCH   1   3
ATOM      3  O   UNL     1      -7.020   0.096 -30.096  1.00  0.00    -0.456 OA
BRANCH   3   4
ATOM      4  C   UNL     1      -6.023  -0.631 -29.347  1.00  0.00     0.211 C 
ATOM      5  C   UNL     1      -3.780  -0.540 -27.395  1.00  0.00     0.082 C 
ATOM      6  C   UNL     1      -3.517  -0.717 -28.890  1.00  0.00     0.150 C 
ATOM      7  C   UNL     1      -5.170  -1.052 -26.996  1.00  0.00     0.167 C 
ATOM      8  C   UNL     1      -4.633  -0.112 -29.759  1.00  0.00     0.184 C 
ATOM      9  C   UNL     1      -6.264  -0.412 -27.849  1.00  0.00     0.095 C 
BRANCH   6  10
ATOM     10  O   UNL     1      -3.378  -2.107 -29.226  1.00  0.00    -0.390 OA
ATOM     11  H   UNL     1      -3.209  -2.177 -30.188  1.00  0.00     0.211 HD
ENDBRANCH   6  10
BRANCH   7  12
ATOM     12  O   UNL     1      -5.190  -2.485 -27.183  1.00  0.00    -0.378 OA
ATOM     13  H   UNL     1      -6.060  -2.810 -26.865  1.00  0.00     0.212 HD
ENDBRANCH   7  12
BRANCH   7  14
ATOM     14  C   UNL     1      -5.394  -0.755 -25.505  1.00  0.00     0.335 C 
ATOM     15  O   UNL     1      -6.164  -1.359 -24.777  1.00  0.00    -0.249 OA
BRANCH  14  16
ATOM     16  O   UNL     1      -4.640   0.292 -25.086  1.00  0.00    -0.479 OA
ATOM     17  H   UNL     1      -3.686   0.071 -25.182  1.00  0.00     0.296 HD
ENDBRANCH  14  16
ENDBRANCH   7  14
BRANCH   8  18
ATOM     18  O   UNL     1      -4.381  -0.449 -31.130  1.00  0.00    -0.387 OA
ATOM     19  H   UNL     1      -3.941  -1.325 -31.113  1.00  0.00     0.211 HD
ENDBRANCH   8  18
ENDBRANCH   3   4
ENDBRANCH   1   3
BRANCH   1  20
ATOM     20  C   UNL     1      -8.566  -1.671 -30.118  1.00  0.00     0.094 C 
ATOM     21  C   UNL     1      -8.710  -2.950 -30.500  1.00  0.00     0.016 C 
BRANCH  21  22
ATOM     22  C   UNL     1      -9.444  -3.949 -29.714  1.00  0.00    -0.021 A 
ATOM     23  C   UNL     1      -9.413  -3.957 -28.309  1.00  0.00     0.058 A 
ATOM     24  C   UNL     1     -10.244  -4.884 -30.389  1.00  0.00     0.012 A 
ATOM     25  C   UNL     1     -10.155  -4.906 -27.613  1.00  0.00     0.157 A 
ATOM     26  C   UNL     1     -10.984  -5.835 -29.681  1.00  0.00     0.051 A 
ATOM     27  C   UNL     1     -10.930  -5.838 -28.296  1.00  0.00     0.157 A 
BRANCH  25  28
ATOM     28  O   UNL     1     -10.160  -4.959 -26.245  1.00  0.00    -0.504 OA
ATOM     29  H   UNL     1     -10.461  -5.842 -25.974  1.00  0.00     0.293 HD
ENDBRANCH  25  28
BRANCH  27  30
ATOM     30  O   UNL     1     -11.655  -6.763 -27.603  1.00  0.00    -0.504 OA
ATOM     31  H   UNL     1     -11.000  -7.208 -27.028  1.00  0.00     0.293 HD
ENDBRANCH  27  30
ENDBRANCH  21  22
ENDBRANCH   1  20
TORSDOF 11
ENDMDL
MODEL 10
REMARK VINA RESULT:      -7.6      4.328      7.720
REMARK SMILES O=C(/C=C/c1ccc(O)c(O)c1)O[C@@H]1C[C@](O)(C(=O)O)C[C@@H](O)[C@H]1O
REMARK SMILES IDX 2 1 1 2 13 3 14 4 21 5 22 6 16 7 24 8 15 9 23 10 17 12 18 14
REMARK SMILES IDX 19 15 20 16 25 18 3 20 4 21 5 22 12 23 6 24 10 25 7 26 8 27
REMARK SMILES IDX 11 28 9 30
REMARK H PARENT 23 11 17 13 20 17 25 19 11 29 9 31
ROOT
ATOM      1  C   UNL     1      -8.093  -1.257 -26.112  1.00  0.00     0.331 C 
ATOM      2  O   UNL     1      -8.035  -1.368 -24.895  1.00  0.00    -0.247 OA
ENDROOT
BRANCH   1   3
ATOM      3  O   UNL     1      -9.161  -1.567 -26.884  1.00  0.00    -0.456 OA
BRANCH   3   4
ATOM      4  C   UNL     1      -9.461  -2.974 -27.001  1.00  0.00     0.211 C 
ATOM      5  C   UNL     1     -11.402  -5.073 -27.824  1.00  0.00     0.082 C 
ATOM      6  C   UNL     1     -11.202  -4.719 -26.351  1.00  0.00     0.150 C 
ATOM      7  C   UNL     1     -10.153  -4.764 -28.659  1.00  0.00     0.167 C 
ATOM      8  C   UNL     1     -10.713  -3.274 -26.155  1.00  0.00     0.184 C 
ATOM      9  C   UNL     1      -9.706  -3.314 -28.475  1.00  0.00     0.095 C 
BRANCH   6  10
ATOM     10  O   UNL     1     -10.259  -5.609 -25.733  1.00  0.00    -0.390 OA
ATOM     11  H   UNL     1      -9.355  -5.301 -25.949  1.00  0.00     0.211 HD
ENDBRANCH   6  10
BRANCH   7  12
ATOM     12  O   UNL     1      -9.096  -5.651 -28.231  1.00  0.00    -0.378 OA
ATOM     13  H   UNL     1      -8.942  -6.294 -28.957  1.00  0.00     0.212 HD
ENDBRANCH   7  12
BRANCH   7  14
ATOM     14  C   UNL     1     -10.463  -5.057 -30.136  1.00  0.00     0.335 C 
ATOM     15  O   UNL     1     -11.279  -5.872 -30.534  1.00  0.00    -0.249 OA
BRANCH  14  16
ATOM     16  O   UNL     1      -9.696  -4.306 -30.966  1.00  0.00    -0.479 OA
ATOM     17  H   UNL     1     -10.187  -4.132 -31.802  1.00  0.00     0.296 HD
ENDBRANCH  14  16
ENDBRANCH   7  14
BRANCH   8  18
ATOM     18  O   UNL     1     -10.413  -3.075 -24.767  1.00  0.00    -0.387 OA
ATOM     19  H   UNL     1     -11.271  -2.881 -24.334  1.00  0.00     0.211 HD
ENDBRANCH   8  18
ENDBRANCH   3   4
ENDBRANCH   1   3
BRANCH   1  20
ATOM     20  C   UNL     1      -6.943  -0.794 -26.915  1.00  0.00     0.094 C 
ATOM     21  C   UNL     1      -5.777  -1.451 -27.009  1.00  0.00     0.016 C 
BRANCH  21  22
ATOM     22  C   UNL     1      -4.649  -0.979 -27.823  1.00  0.00    -0.021 A 
ATOM     23  C   UNL     1      -3.666  -0.121 -27.303  1.00  0.00     0.058 A 
ATOM     24  C   UNL     1      -4.525  -1.449 -29.140  1.00  0.00     0.012 A 
ATOM     25  C   UNL     1      -2.600   0.268 -28.109  1.00  0.00     0.157 A 
ATOM     26  C   UNL     1      -3.452  -1.050 -29.943  1.00  0.00     0.051 A 
ATOM     27  C   UNL     1      -2.500  -0.191 -29.418  1.00  0.00     0.157 A 
BRANCH  25  28
ATOM     28  O   UNL     1      -1.617   1.103 -27.653  1.00  0.00    -0.504 OA
ATOM     29  H   UNL     1      -0.757   0.683 -27.822  1.00  0.00     0.293 HD
ENDBRANCH  25  28
BRANCH  27  30
ATOM     30  O   UNL     1      -1.450   0.196 -30.200  1.00  0.00    -0.504 OA
ATOM     31  H   UNL     1      -1.539   1.168 -30.265  1.00  0.00     0.293 HD
ENDBRANCH  27  30
ENDBRANCH  21  22
ENDBRANCH   1  20
TORSDOF 11
ENDMDL
