MODEL 1
REMARK VINA RESULT:      -8.1      0.000      0.000
REMARK SMILES O=C(/C=C/c1ccc(O)c(O)c1)O[C@H](Cc1ccc(O)c(O)c1)C(=O)O
REMARK SMILES IDX 13 1 14 2 15 3 16 4 17 5 18 6 19 7 23 8 21 9 20 10 22 12
REMARK SMILES IDX 24 14 25 15 26 16 2 18 1 19 3 20 4 21 5 22 12 23 6 24 10 25
REMARK SMILES IDX 7 26 8 27 11 28 9 30
REMARK H PARENT 20 11 22 13 26 17 11 29 9 31
ROOT
ATOM      1  O   UNL     1      -8.249  -0.112 -32.342  1.00  0.00    -0.447 OA
ENDROOT
BRANCH   1   2
ATOM      2  C   UNL     1      -9.398   0.491 -31.721  1.00  0.00     0.290 C 
BRANCH   2   3
ATOM      3  C   UNL     1      -9.868  -0.430 -30.582  1.00  0.00     0.093 C 
BRANCH   3   4
ATOM      4  C   UNL     1      -8.727  -0.945 -29.730  1.00  0.00    -0.040 A 
ATOM      5  C   UNL     1      -8.265  -2.263 -29.885  1.00  0.00     0.008 A 
ATOM      6  C   UNL     1      -7.204  -2.748 -29.113  1.00  0.00     0.050 A 
ATOM      7  C   UNL     1      -6.602  -1.909 -28.186  1.00  0.00     0.157 A 
ATOM      8  C   UNL     1      -8.117  -0.118 -28.775  1.00  0.00     0.054 A 
ATOM      9  C   UNL     1      -7.058  -0.604 -28.022  1.00  0.00     0.157 A 
BRANCH   7  10
ATOM     10  O   UNL     1      -5.556  -2.320 -27.408  1.00  0.00    -0.504 OA
ATOM     11  H   UNL     1      -5.918  -2.800 -26.643  1.00  0.00     0.293 HD
ENDBRANCH   7  10
BRANCH   9  12
ATOM     12  O   UNL     1      -6.460   0.217 -27.109  1.00  0.00    -0.504 OA
ATOM     13  H   UNL     1      -6.965   0.077 -26.284  1.00  0.00     0.293 HD
ENDBRANCH   9  12
ENDBRANCH   3   4
ENDBRANCH   2   3
BRANCH   2  14
ATOM     14  C   UNL     1     -10.545   0.700 -32.721  1.00  0.00     0.345 C 
ATOM     15  O   UNL     1     -11.176  -0.203 -33.252  1.00  0.00    -0.248 OA
BRANCH  14  16
ATOM     16  O   UNL     1     -10.824   2.002 -32.974  1.00  0.00    -0.478 OA
ATOM     17  H   UNL     1     -10.650   2.279 -33.906  1.00  0.00     0.296 HD
ENDBRANCH  14  16
ENDBRANCH   2  14
ENDBRANCH   1   2
BRANCH   1  18
ATOM     18  C   UNL     1      -7.380   0.757 -32.904  1.00  0.00     0.331 C 
ATOM     19  O   UNL     1      -7.427   1.142 -34.062  1.00  0.00    -0.247 OA
BRANCH  18  20
ATOM     20  C   UNL     1      -6.348   1.107 -31.914  1.00  0.00     0.094 C 
ATOM     21  C   UNL     1      -5.548   0.152 -31.417  1.00  0.00     0.016 C 
BRANCH  21  22
ATOM     22  C   UNL     1      -4.510   0.411 -30.413  1.00  0.00    -0.021 A 
ATOM     23  C   UNL     1      -4.443   1.632 -29.720  1.00  0.00     0.058 A 
ATOM     24  C   UNL     1      -3.605  -0.613 -30.091  1.00  0.00     0.012 A 
ATOM     25  C   UNL     1      -3.468   1.815 -28.745  1.00  0.00     0.157 A 
ATOM     26  C   UNL     1      -2.626  -0.418 -29.113  1.00  0.00     0.051 A 
ATOM     27  C   UNL     1      -2.566   0.797 -28.449  1.00  0.00     0.157 A 
BRANCH  25  28
ATOM     28  O   UNL     1      -3.360   2.982 -28.041  1.00  0.00    -0.504 OA
ATOM     29  H   UNL     1      -3.367   3.723 -28.671  1.00  0.00     0.293 HD
ENDBRANCH  25  28
BRANCH  27  30
ATOM     30  O   UNL     1      -1.616   0.985 -27.488  1.00  0.00    -0.504 OA
ATOM     31  H   UNL     1      -1.022   0.212 -27.575  1.00  0.00     0.293 HD
ENDBRANCH  27  30
ENDBRANCH  21  22
ENDBRANCH  18  20
ENDBRANCH   1  18
TORSDOF 12
ENDMDL
MODEL 2
REMARK VINA RESULT:      -8.0      0.645      1.311
REMARK SMILES O=C(/C=C/c1ccc(O)c(O)c1)O[C@H](Cc1ccc(O)c(O)c1)C(=O)O
REMARK SMILES IDX 13 1 14 2 15 3 16 4 17 5 18 6 19 7 23 8 21 9 20 10 22 12
REMARK SMILES IDX 24 14 25 15 26 16 2 18 1 19 3 20 4 21 5 22 12 23 6 24 10 25
REMARK SMILES IDX 7 26 8 27 11 28 9 30
REMARK H PARENT 20 11 22 13 26 17 11 29 9 31
ROOT
ATOM      1  O   UNL     1      -8.421  -0.077 -32.154  1.00  0.00    -0.447 OA
ENDROOT
BRANCH   1   2
ATOM      2  C   UNL     1      -9.542   0.658 -31.635  1.00  0.00     0.290 C 
BRANCH   2   3
ATOM      3  C   UNL     1     -10.095  -0.103 -30.418  1.00  0.00     0.093 C 
BRANCH   3   4
ATOM      4  C   UNL     1      -9.008  -0.589 -29.482  1.00  0.00    -0.040 A 
ATOM      5  C   UNL     1      -8.240   0.332 -28.750  1.00  0.00     0.008 A 
ATOM      6  C   UNL     1      -7.241  -0.104 -27.872  1.00  0.00     0.050 A 
ATOM      7  C   UNL     1      -7.014  -1.466 -27.726  1.00  0.00     0.157 A 
ATOM      8  C   UNL     1      -8.752  -1.961 -29.334  1.00  0.00     0.054 A 
ATOM      9  C   UNL     1      -7.767  -2.384 -28.453  1.00  0.00     0.157 A 
BRANCH   7  10
ATOM     10  O   UNL     1      -6.059  -1.955 -26.879  1.00  0.00    -0.504 OA
ATOM     11  H   UNL     1      -5.186  -1.714 -27.236  1.00  0.00     0.293 HD
ENDBRANCH   7  10
BRANCH   9  12
ATOM     12  O   UNL     1      -7.540  -3.722 -28.303  1.00  0.00    -0.504 OA
ATOM     13  H   UNL     1      -6.712  -3.887 -28.797  1.00  0.00     0.293 HD
ENDBRANCH   9  12
ENDBRANCH   3   4
ENDBRANCH   2   3
BRANCH   2  14
ATOM     14  C   UNL     1     -10.651   0.828 -32.684  1.00  0.00     0.345 C 
ATOM     15  O   UNL     1     -11.329  -0.087 -33.131  1.00  0.00    -0.248 OA
BRANCH  14  16
ATOM     16  O   UNL     1     -10.840   2.109 -33.084  1.00  0.00    -0.478 OA
ATOM     17  H   UNL     1     -11.406   2.644 -32.476  1.00  0.00     0.296 HD
ENDBRANCH  14  16
ENDBRANCH   2  14
ENDBRANCH   1   2
BRANCH   1  18
ATOM     18  C   UNL     1      -7.493   0.669 -32.793  1.00  0.00     0.331 C 
ATOM     19  O   UNL     1      -7.511   0.939 -33.984  1.00  0.00    -0.247 OA
BRANCH  18  20
ATOM     20  C   UNL     1      -6.441   1.045 -31.834  1.00  0.00     0.094 C 
ATOM     21  C   UNL     1      -5.602   0.111 -31.363  1.00  0.00     0.016 C 
BRANCH  21  22
ATOM     22  C   UNL     1      -4.542   0.396 -30.389  1.00  0.00    -0.021 A 
ATOM     23  C   UNL     1      -4.488   1.616 -29.694  1.00  0.00     0.058 A 
ATOM     24  C   UNL     1      -3.598  -0.603 -30.100  1.00  0.00     0.012 A 
ATOM     25  C   UNL     1      -3.489   1.824 -28.748  1.00  0.00     0.157 A 
ATOM     26  C   UNL     1      -2.596  -0.383 -29.152  1.00  0.00     0.051 A 
ATOM     27  C   UNL     1      -2.550   0.831 -28.484  1.00  0.00     0.157 A 
BRANCH  25  28
ATOM     28  O   UNL     1      -3.393   2.991 -28.043  1.00  0.00    -0.504 OA
ATOM     29  H   UNL     1      -2.557   2.980 -27.545  1.00  0.00     0.293 HD
ENDBRANCH  25  28
BRANCH  27  30
ATOM     30  O   UNL     1      -1.576   1.043 -27.552  1.00  0.00    -0.504 OA
ATOM     31  H   UNL     1      -2.057   1.372 -26.766  1.00  0.00     0.293 HD
ENDBRANCH  27  30
ENDBRANCH  21  22
ENDBRANCH  18  20
ENDBRANCH   1  18
TORSDOF 12
ENDMDL
MODEL 3
REMARK VINA RESULT:      -7.9      3.085      7.119
REMARK SMILES O=C(/C=C/c1ccc(O)c(O)c1)O[C@H](Cc1ccc(O)c(O)c1)C(=O)O
REMARK SMILES IDX 13 1 14 2 15 3 16 4 17 5 18 6 19 7 23 8 21 9 20 10 22 12
REMARK SMILES IDX 24 14 25 15 26 16 2 18 1 19 3 20 4 21 5 22 12 23 6 24 10 25
REMARK SMILES IDX 7 26 8 27 11 28 9 30
REMARK H PARENT 20 11 22 13 26 17 11 29 9 31
ROOT
ATOM      1  O   UNL     1      -6.090  -0.804 -30.973  1.00  0.00    -0.447 OA
ENDROOT
BRANCH   1   2
ATOM      2  C   UNL     1      -5.326   0.406 -30.830  1.00  0.00     0.290 C 
BRANCH   2   3
ATOM      3  C   UNL     1      -6.211   1.588 -31.262  1.00  0.00     0.093 C 
BRANCH   3   4
ATOM      4  C   UNL     1      -7.515   1.149 -31.896  1.00  0.00    -0.040 A 
ATOM      5  C   UNL     1      -7.578   0.883 -33.275  1.00  0.00     0.008 A 
ATOM      6  C   UNL     1      -8.773   0.464 -33.871  1.00  0.00     0.050 A 
ATOM      7  C   UNL     1      -9.905   0.309 -33.083  1.00  0.00     0.157 A 
ATOM      8  C   UNL     1      -8.674   1.002 -31.120  1.00  0.00     0.054 A 
ATOM      9  C   UNL     1      -9.852   0.577 -31.718  1.00  0.00     0.157 A 
BRANCH   7  10
ATOM     10  O   UNL     1     -11.100  -0.105 -33.604  1.00  0.00    -0.504 OA
ATOM     11  H   UNL     1     -11.486   0.637 -34.101  1.00  0.00     0.293 HD
ENDBRANCH   7  10
BRANCH   9  12
ATOM     12  O   UNL     1     -10.968   0.419 -30.948  1.00  0.00    -0.504 OA
ATOM     13  H   UNL     1     -11.061  -0.549 -30.846  1.00  0.00     0.293 HD
ENDBRANCH   9  12
ENDBRANCH   3   4
ENDBRANCH   2   3
BRANCH   2  14
ATOM     14  C   UNL     1      -4.049   0.381 -31.682  1.00  0.00     0.345 C 
ATOM     15  O   UNL     1      -3.228  -0.526 -31.675  1.00  0.00    -0.248 OA
BRANCH  14  16
ATOM     16  O   UNL     1      -3.896   1.467 -32.477  1.00  0.00    -0.478 OA
ATOM     17  H   UNL     1      -3.033   1.936 -32.360  1.00  0.00     0.296 HD
ENDBRANCH  14  16
ENDBRANCH   2  14
ENDBRANCH   1   2
BRANCH   1  18
ATOM     18  C   UNL     1      -6.021  -1.652 -29.923  1.00  0.00     0.331 C 
ATOM     19  O   UNL     1      -4.999  -1.926 -29.312  1.00  0.00    -0.247 OA
BRANCH  18  20
ATOM     20  C   UNL     1      -7.355  -2.227 -29.685  1.00  0.00     0.094 C 
ATOM     21  C   UNL     1      -7.468  -3.449 -29.144  1.00  0.00     0.016 C 
BRANCH  21  22
ATOM     22  C   UNL     1      -8.757  -4.104 -28.894  1.00  0.00    -0.021 A 
ATOM     23  C   UNL     1      -9.404  -4.862 -29.885  1.00  0.00     0.058 A 
ATOM     24  C   UNL     1      -9.323  -4.024 -27.611  1.00  0.00     0.012 A 
ATOM     25  C   UNL     1     -10.603  -5.501 -29.588  1.00  0.00     0.157 A 
ATOM     26  C   UNL     1     -10.530  -4.666 -27.323  1.00  0.00     0.051 A 
ATOM     27  C   UNL     1     -11.160  -5.399 -28.316  1.00  0.00     0.157 A 
BRANCH  25  28
ATOM     28  O   UNL     1     -11.272  -6.252 -30.514  1.00  0.00    -0.504 OA
ATOM     29  H   UNL     1     -12.226  -6.103 -30.399  1.00  0.00     0.293 HD
ENDBRANCH  25  28
BRANCH  27  30
ATOM     30  O   UNL     1     -12.336  -6.032 -28.033  1.00  0.00    -0.504 OA
ATOM     31  H   UNL     1     -12.269  -6.260 -27.084  1.00  0.00     0.293 HD
ENDBRANCH  27  30
ENDBRANCH  21  22
ENDBRANCH  18  20
ENDBRANCH   1  18
TORSDOF 12
ENDMDL
MODEL 4
REMARK VINA RESULT:      -7.8      2.273      6.050
REMARK SMILES O=C(/C=C/c1ccc(O)c(O)c1)O[C@H](Cc1ccc(O)c(O)c1)C(=O)O
REMARK SMILES IDX 13 1 14 2 15 3 16 4 17 5 18 6 19 7 23 8 21 9 20 10 22 12
REMARK SMILES IDX 24 14 25 15 26 16 2 18 1 19 3 20 4 21 5 22 12 23 6 24 10 25
REMARK SMILES IDX 7 26 8 27 11 28 9 30
REMARK H PARENT 20 11 22 13 26 17 11 29 9 31
ROOT
ATOM      1  O   UNL     1      -3.739   1.927 -29.754  1.00  0.00    -0.447 OA
ENDROOT
BRANCH   1   2
ATOM      2  C   UNL     1      -3.872   0.504 -29.916  1.00  0.00     0.290 C 
BRANCH   2   3
ATOM      3  C   UNL     1      -3.038  -0.185 -28.822  1.00  0.00     0.093 C 
BRANCH   3   4
ATOM      4  C   UNL     1      -3.870  -0.631 -27.639  1.00  0.00    -0.040 A 
ATOM      5  C   UNL     1      -4.532  -1.870 -27.665  1.00  0.00     0.008 A 
ATOM      6  C   UNL     1      -5.294  -2.300 -26.573  1.00  0.00     0.050 A 
ATOM      7  C   UNL     1      -5.391  -1.487 -25.452  1.00  0.00     0.157 A 
ATOM      8  C   UNL     1      -3.994   0.184 -26.503  1.00  0.00     0.054 A 
ATOM      9  C   UNL     1      -4.744  -0.255 -25.421  1.00  0.00     0.157 A 
BRANCH   7  10
ATOM     10  O   UNL     1      -6.113  -1.854 -24.350  1.00  0.00    -0.504 OA
ATOM     11  H   UNL     1      -6.488  -2.737 -24.515  1.00  0.00     0.293 HD
ENDBRANCH   7  10
BRANCH   9  12
ATOM     12  O   UNL     1      -4.840   0.538 -24.314  1.00  0.00    -0.504 OA
ATOM     13  H   UNL     1      -4.476   1.400 -24.598  1.00  0.00     0.293 HD
ENDBRANCH   9  12
ENDBRANCH   3   4
ENDBRANCH   2   3
BRANCH   2  14
ATOM     14  C   UNL     1      -3.393   0.038 -31.299  1.00  0.00     0.345 C 
ATOM     15  O   UNL     1      -3.032  -1.100 -31.561  1.00  0.00    -0.248 OA
BRANCH  14  16
ATOM     16  O   UNL     1      -3.409   1.010 -32.244  1.00  0.00    -0.478 OA
ATOM     17  H   UNL     1      -2.799   1.765 -32.058  1.00  0.00     0.296 HD
ENDBRANCH  14  16
ENDBRANCH   2  14
ENDBRANCH   1   2
BRANCH   1  18
ATOM     18  C   UNL     1      -4.891   2.583 -29.487  1.00  0.00     0.331 C 
ATOM     19  O   UNL     1      -4.974   3.610 -28.832  1.00  0.00    -0.247 OA
BRANCH  18  20
ATOM     20  C   UNL     1      -6.015   1.826 -30.061  1.00  0.00     0.094 C 
ATOM     21  C   UNL     1      -6.701   2.332 -31.097  1.00  0.00     0.016 C 
BRANCH  21  22
ATOM     22  C   UNL     1      -7.847   1.654 -31.714  1.00  0.00    -0.021 A 
ATOM     23  C   UNL     1      -8.962   1.256 -30.957  1.00  0.00     0.058 A 
ATOM     24  C   UNL     1      -7.855   1.461 -33.104  1.00  0.00     0.012 A 
ATOM     25  C   UNL     1     -10.045   0.656 -31.593  1.00  0.00     0.157 A 
ATOM     26  C   UNL     1      -8.945   0.853 -33.733  1.00  0.00     0.051 A 
ATOM     27  C   UNL     1     -10.031   0.455 -32.970  1.00  0.00     0.157 A 
BRANCH  25  28
ATOM     28  O   UNL     1     -11.155   0.252 -30.905  1.00  0.00    -0.504 OA
ATOM     29  H   UNL     1     -11.631   1.043 -30.598  1.00  0.00     0.293 HD
ENDBRANCH  25  28
BRANCH  27  30
ATOM     30  O   UNL     1     -11.099  -0.131 -33.586  1.00  0.00    -0.504 OA
ATOM     31  H   UNL     1     -11.754  -0.258 -32.871  1.00  0.00     0.293 HD
ENDBRANCH  27  30
ENDBRANCH  21  22
ENDBRANCH  18  20
ENDBRANCH   1  18
TORSDOF 12
ENDMDL
MODEL 5
REMARK VINA RESULT:      -7.7      1.726      6.161
REMARK SMILES O=C(/C=C/c1ccc(O)c(O)c1)O[C@H](Cc1ccc(O)c(O)c1)C(=O)O
REMARK SMILES IDX 13 1 14 2 15 3 16 4 17 5 18 6 19 7 23 8 21 9 20 10 22 12
REMARK SMILES IDX 24 14 25 15 26 16 2 18 1 19 3 20 4 21 5 22 12 23 6 24 10 25
REMARK SMILES IDX 7 26 8 27 11 28 9 30
REMARK H PARENT 20 11 22 13 26 17 11 29 9 31
ROOT
ATOM      1  O   UNL     1      -4.305   1.516 -28.436  1.00  0.00    -0.447 OA
ENDROOT
BRANCH   1   2
ATOM      2  C   UNL     1      -3.640   0.341 -28.932  1.00  0.00     0.290 C 
BRANCH   2   3
ATOM      3  C   UNL     1      -4.073  -0.856 -28.069  1.00  0.00     0.093 C 
BRANCH   3   4
ATOM      4  C   UNL     1      -5.454  -1.368 -28.422  1.00  0.00    -0.040 A 
ATOM      5  C   UNL     1      -5.738  -1.801 -29.729  1.00  0.00     0.008 A 
ATOM      6  C   UNL     1      -7.006  -2.288 -30.064  1.00  0.00     0.050 A 
ATOM      7  C   UNL     1      -7.990  -2.344 -29.088  1.00  0.00     0.157 A 
ATOM      8  C   UNL     1      -6.468  -1.417 -27.453  1.00  0.00     0.054 A 
ATOM      9  C   UNL     1      -7.719  -1.911 -27.793  1.00  0.00     0.157 A 
BRANCH   7  10
ATOM     10  O   UNL     1      -9.246  -2.817 -29.350  1.00  0.00    -0.504 OA
ATOM     11  H   UNL     1      -9.455  -2.620 -30.280  1.00  0.00     0.293 HD
ENDBRANCH   7  10
BRANCH   9  12
ATOM     12  O   UNL     1      -8.691  -1.972 -26.836  1.00  0.00    -0.504 OA
ATOM     13  H   UNL     1      -8.496  -1.223 -26.240  1.00  0.00     0.293 HD
ENDBRANCH   9  12
ENDBRANCH   3   4
ENDBRANCH   2   3
BRANCH   2  14
ATOM     14  C   UNL     1      -2.112   0.485 -28.883  1.00  0.00     0.345 C 
ATOM     15  O   UNL     1      -1.361   0.227 -29.814  1.00  0.00    -0.248 OA
BRANCH  14  16
ATOM     16  O   UNL     1      -1.639   0.942 -27.699  1.00  0.00    -0.478 OA
ATOM     17  H   UNL     1      -0.777   0.543 -27.426  1.00  0.00     0.296 HD
ENDBRANCH  14  16
ENDBRANCH   2  14
ENDBRANCH   1   2
BRANCH   1  18
ATOM     18  C   UNL     1      -4.760   2.361 -29.388  1.00  0.00     0.331 C 
ATOM     19  O   UNL     1      -4.201   3.390 -29.735  1.00  0.00    -0.247 OA
BRANCH  18  20
ATOM     20  C   UNL     1      -6.055   1.867 -29.885  1.00  0.00     0.094 C 
ATOM     21  C   UNL     1      -6.223   1.638 -31.196  1.00  0.00     0.016 C 
BRANCH  21  22
ATOM     22  C   UNL     1      -7.486   1.166 -31.777  1.00  0.00    -0.021 A 
ATOM     23  C   UNL     1      -8.628   0.957 -30.986  1.00  0.00     0.058 A 
ATOM     24  C   UNL     1      -7.568   0.984 -33.167  1.00  0.00     0.012 A 
ATOM     25  C   UNL     1      -9.815   0.552 -31.588  1.00  0.00     0.157 A 
ATOM     26  C   UNL     1      -8.764   0.573 -33.761  1.00  0.00     0.051 A 
ATOM     27  C   UNL     1      -9.877   0.359 -32.965  1.00  0.00     0.157 A 
BRANCH  25  28
ATOM     28  O   UNL     1     -10.956   0.337 -30.866  1.00  0.00    -0.504 OA
ATOM     29  H   UNL     1     -11.706   0.290 -31.483  1.00  0.00     0.293 HD
ENDBRANCH  25  28
BRANCH  27  30
ATOM     30  O   UNL     1     -11.047  -0.035 -33.547  1.00  0.00    -0.504 OA
ATOM     31  H   UNL     1     -11.617   0.760 -33.516  1.00  0.00     0.293 HD
ENDBRANCH  27  30
ENDBRANCH  21  22
ENDBRANCH  18  20
ENDBRANCH   1  18
TORSDOF 12
ENDMDL
MODEL 6
REMARK VINA RESULT:      -7.7      2.163      2.756
REMARK SMILES O=C(/C=C/c1ccc(O)c(O)c1)O[C@H](Cc1ccc(O)c(O)c1)C(=O)O
REMARK SMILES IDX 13 1 14 2 15 3 16 4 17 5 18 6 19 7 23 8 21 9 20 10 22 12
REMARK SMILES IDX 24 14 25 15 26 16 2 18 1 19 3 20 4 21 5 22 12 23 6 24 10 25
REMARK SMILES IDX 7 26 8 27 11 28 9 30
REMARK H PARENT 20 11 22 13 26 17 11 29 9 31
ROOT
ATOM      1  O   UNL     1      -8.026   0.054 -33.046  1.00  0.00    -0.447 OA
ENDROOT
BRANCH   1   2
ATOM      2  C   UNL     1      -9.255   0.017 -32.300  1.00  0.00     0.290 C 
BRANCH   2   3
ATOM      3  C   UNL     1      -9.538  -1.445 -31.912  1.00  0.00     0.093 C 
BRANCH   3   4
ATOM      4  C   UNL     1      -9.418  -1.695 -30.424  1.00  0.00    -0.040 A 
ATOM      5  C   UNL     1      -9.814  -0.707 -29.505  1.00  0.00     0.008 A 
ATOM      6  C   UNL     1      -9.720  -0.929 -28.127  1.00  0.00     0.050 A 
ATOM      7  C   UNL     1      -9.231  -2.145 -27.669  1.00  0.00     0.157 A 
ATOM      8  C   UNL     1      -8.910  -2.910 -29.941  1.00  0.00     0.054 A 
ATOM      9  C   UNL     1      -8.830  -3.125 -28.572  1.00  0.00     0.157 A 
BRANCH   7  10
ATOM     10  O   UNL     1      -9.122  -2.427 -26.335  1.00  0.00    -0.504 OA
ATOM     11  H   UNL     1      -8.313  -2.951 -26.202  1.00  0.00     0.293 HD
ENDBRANCH   7  10
BRANCH   9  12
ATOM     12  O   UNL     1      -8.353  -4.320 -28.115  1.00  0.00    -0.504 OA
ATOM     13  H   UNL     1      -8.904  -4.992 -28.563  1.00  0.00     0.293 HD
ENDBRANCH   9  12
ENDBRANCH   3   4
ENDBRANCH   2   3
BRANCH   2  14
ATOM     14  C   UNL     1     -10.434   0.572 -33.113  1.00  0.00     0.345 C 
ATOM     15  O   UNL     1     -11.021  -0.042 -33.993  1.00  0.00    -0.248 OA
BRANCH  14  16
ATOM     16  O   UNL     1     -10.798   1.830 -32.766  1.00  0.00    -0.478 OA
ATOM     17  H   UNL     1     -11.757   2.026 -32.904  1.00  0.00     0.296 HD
ENDBRANCH  14  16
ENDBRANCH   2  14
ENDBRANCH   1   2
BRANCH   1  18
ATOM     18  C   UNL     1      -7.099   0.920 -32.579  1.00  0.00     0.331 C 
ATOM     19  O   UNL     1      -6.492   1.730 -33.262  1.00  0.00    -0.247 OA
BRANCH  18  20
ATOM     20  C   UNL     1      -6.907   0.683 -31.139  1.00  0.00     0.094 C 
ATOM     21  C   UNL     1      -6.137  -0.336 -30.727  1.00  0.00     0.016 C 
BRANCH  21  22
ATOM     22  C   UNL     1      -5.911  -0.655 -29.312  1.00  0.00    -0.021 A 
ATOM     23  C   UNL     1      -6.270   0.237 -28.288  1.00  0.00     0.058 A 
ATOM     24  C   UNL     1      -5.384  -1.913 -28.976  1.00  0.00     0.012 A 
ATOM     25  C   UNL     1      -6.077  -0.128 -26.960  1.00  0.00     0.157 A 
ATOM     26  C   UNL     1      -5.189  -2.269 -27.638  1.00  0.00     0.051 A 
ATOM     27  C   UNL     1      -5.537  -1.371 -26.642  1.00  0.00     0.157 A 
BRANCH  25  28
ATOM     28  O   UNL     1      -6.411   0.701 -25.926  1.00  0.00    -0.504 OA
ATOM     29  H   UNL     1      -6.795   0.163 -25.212  1.00  0.00     0.293 HD
ENDBRANCH  25  28
BRANCH  27  30
ATOM     30  O   UNL     1      -5.355  -1.722 -25.335  1.00  0.00    -0.504 OA
ATOM     31  H   UNL     1      -4.534  -2.254 -25.337  1.00  0.00     0.293 HD
ENDBRANCH  27  30
ENDBRANCH  21  22
ENDBRANCH  18  20
ENDBRANCH   1  18
TORSDOF 12
ENDMDL
MODEL 7
REMARK VINA RESULT:      -7.6      1.907      3.630
REMARK SMILES O=C(/C=C/c1ccc(O)c(O)c1)O[C@H](Cc1ccc(O)c(O)c1)C(=O)O
REMARK SMILES IDX 13 1 14 2 15 3 16 4 17 5 18 6 19 7 23 8 21 9 20 10 22 12
REMARK SMILES IDX 24 14 25 15 26 16 2 18 1 19 3 20 4 21 5 22 12 23 6 24 10 25
REMARK SMILES IDX 7 26 8 27 11 28 9 30
REMARK H PARENT 20 11 22 13 26 17 11 29 9 31
ROOT
ATOM      1  O   UNL     1      -8.882  -1.440 -30.543  1.00  0.00    -0.447 OA
ENDROOT
BRANCH   1   2
ATOM      2  C   UNL     1      -8.633  -0.386 -31.489  1.00  0.00     0.290 C 
BRANCH   2   3
ATOM      3  C   UNL     1      -8.730   0.958 -30.748  1.00  0.00     0.093 C 
BRANCH   3   4
ATOM      4  C   UNL     1      -7.380   1.610 -30.528  1.00  0.00    -0.040 A 
ATOM      5  C   UNL     1      -7.131   2.346 -29.358  1.00  0.00     0.008 A 
ATOM      6  C   UNL     1      -5.885   2.942 -29.136  1.00  0.00     0.050 A 
ATOM      7  C   UNL     1      -4.886   2.798 -30.089  1.00  0.00     0.157 A 
ATOM      8  C   UNL     1      -6.363   1.489 -31.487  1.00  0.00     0.054 A 
ATOM      9  C   UNL     1      -5.127   2.075 -31.254  1.00  0.00     0.157 A 
BRANCH   7  10
ATOM     10  O   UNL     1      -3.644   3.348 -29.927  1.00  0.00    -0.504 OA
ATOM     11  H   UNL     1      -3.449   3.889 -30.713  1.00  0.00     0.293 HD
ENDBRANCH   7  10
BRANCH   9  12
ATOM     12  O   UNL     1      -4.139   1.934 -32.185  1.00  0.00    -0.504 OA
ATOM     13  H   UNL     1      -4.609   1.927 -33.043  1.00  0.00     0.293 HD
ENDBRANCH   9  12
ENDBRANCH   3   4
ENDBRANCH   2   3
BRANCH   2  14
ATOM     14  C   UNL     1      -9.640  -0.408 -32.649  1.00  0.00     0.345 C 
ATOM     15  O   UNL     1      -9.364  -0.709 -33.801  1.00  0.00    -0.248 OA
BRANCH  14  16
ATOM     16  O   UNL     1     -10.902  -0.069 -32.289  1.00  0.00    -0.478 OA
ATOM     17  H   UNL     1     -11.597  -0.362 -32.928  1.00  0.00     0.296 HD
ENDBRANCH  14  16
ENDBRANCH   2  14
ENDBRANCH   1   2
BRANCH   1  18
ATOM     18  C   UNL     1      -7.930  -2.398 -30.490  1.00  0.00     0.331 C 
ATOM     19  O   UNL     1      -8.140  -3.598 -30.581  1.00  0.00    -0.247 OA
BRANCH  18  20
ATOM     20  C   UNL     1      -6.625  -1.762 -30.247  1.00  0.00     0.094 C 
ATOM     21  C   UNL     1      -6.231  -1.506 -28.991  1.00  0.00     0.016 C 
BRANCH  21  22
ATOM     22  C   UNL     1      -4.957  -0.855 -28.662  1.00  0.00    -0.021 A 
ATOM     23  C   UNL     1      -3.934  -0.714 -29.614  1.00  0.00     0.058 A 
ATOM     24  C   UNL     1      -4.787  -0.303 -27.382  1.00  0.00     0.012 A 
ATOM     25  C   UNL     1      -2.761  -0.050 -29.269  1.00  0.00     0.157 A 
ATOM     26  C   UNL     1      -3.603   0.357 -27.043  1.00  0.00     0.051 A 
ATOM     27  C   UNL     1      -2.599   0.477 -27.991  1.00  0.00     0.157 A 
BRANCH  25  28
ATOM     28  O   UNL     1      -1.736   0.118 -30.158  1.00  0.00    -0.504 OA
ATOM     29  H   UNL     1      -1.629   1.069 -30.326  1.00  0.00     0.293 HD
ENDBRANCH  25  28
BRANCH  27  30
ATOM     30  O   UNL     1      -1.447   1.130 -27.662  1.00  0.00    -0.504 OA
ATOM     31  H   UNL     1      -0.871   1.020 -28.446  1.00  0.00     0.293 HD
ENDBRANCH  27  30
ENDBRANCH  21  22
ENDBRANCH  18  20
ENDBRANCH   1  18
TORSDOF 12
ENDMDL
MODEL 8
REMARK VINA RESULT:      -7.6      2.374      4.012
REMARK SMILES O=C(/C=C/c1ccc(O)c(O)c1)O[C@H](Cc1ccc(O)c(O)c1)C(=O)O
REMARK SMILES IDX 13 1 14 2 15 3 16 4 17 5 18 6 19 7 23 8 21 9 20 10 22 12
REMARK SMILES IDX 24 14 25 15 26 16 2 18 1 19 3 20 4 21 5 22 12 23 6 24 10 25
REMARK SMILES IDX 7 26 8 27 11 28 9 30
REMARK H PARENT 20 11 22 13 26 17 11 29 9 31
ROOT
ATOM      1  O   UNL     1      -6.745  -0.145 -31.432  1.00  0.00    -0.447 OA
ENDROOT
BRANCH   1   2
ATOM      2  C   UNL     1      -7.083  -0.914 -30.265  1.00  0.00     0.290 C 
BRANCH   2   3
ATOM      3  C   UNL     1      -5.892  -1.828 -29.930  1.00  0.00     0.093 C 
BRANCH   3   4
ATOM      4  C   UNL     1      -4.723  -1.078 -29.326  1.00  0.00    -0.040 A 
ATOM      5  C   UNL     1      -3.546  -0.883 -30.070  1.00  0.00     0.008 A 
ATOM      6  C   UNL     1      -2.464  -0.181 -29.529  1.00  0.00     0.050 A 
ATOM      7  C   UNL     1      -2.562   0.328 -28.241  1.00  0.00     0.157 A 
ATOM      8  C   UNL     1      -4.796  -0.571 -28.020  1.00  0.00     0.054 A 
ATOM      9  C   UNL     1      -3.721   0.132 -27.496  1.00  0.00     0.157 A 
BRANCH   7  10
ATOM     10  O   UNL     1      -1.542   1.029 -27.659  1.00  0.00    -0.504 OA
ATOM     11  H   UNL     1      -0.787   0.427 -27.546  1.00  0.00     0.293 HD
ENDBRANCH   7  10
BRANCH   9  12
ATOM     12  O   UNL     1      -3.812   0.638 -26.231  1.00  0.00    -0.504 OA
ATOM     13  H   UNL     1      -2.968   0.387 -25.805  1.00  0.00     0.293 HD
ENDBRANCH   9  12
ENDBRANCH   3   4
ENDBRANCH   2   3
BRANCH   2  14
ATOM     14  C   UNL     1      -8.341  -1.766 -30.485  1.00  0.00     0.345 C 
ATOM     15  O   UNL     1      -9.151  -2.046 -29.613  1.00  0.00    -0.248 OA
BRANCH  14  16
ATOM     16  O   UNL     1      -8.501  -2.193 -31.761  1.00  0.00    -0.478 OA
ATOM     17  H   UNL     1      -8.161  -3.105 -31.929  1.00  0.00     0.296 HD
ENDBRANCH  14  16
ENDBRANCH   2  14
ENDBRANCH   1   2
BRANCH   1  18
ATOM     18  C   UNL     1      -7.089   1.161 -31.378  1.00  0.00     0.331 C 
ATOM     19  O   UNL     1      -8.214   1.596 -31.573  1.00  0.00    -0.247 OA
BRANCH  18  20
ATOM     20  C   UNL     1      -5.885   1.962 -31.105  1.00  0.00     0.094 C 
ATOM     21  C   UNL     1      -5.904   2.888 -30.136  1.00  0.00     0.016 C 
BRANCH  21  22
ATOM     22  C   UNL     1      -4.755   3.743 -29.814  1.00  0.00    -0.021 A 
ATOM     23  C   UNL     1      -4.336   4.770 -30.677  1.00  0.00     0.058 A 
ATOM     24  C   UNL     1      -4.103   3.571 -28.583  1.00  0.00     0.012 A 
ATOM     25  C   UNL     1      -3.269   5.583 -30.310  1.00  0.00     0.157 A 
ATOM     26  C   UNL     1      -3.029   4.390 -28.224  1.00  0.00     0.051 A 
ATOM     27  C   UNL     1      -2.622   5.390 -29.093  1.00  0.00     0.157 A 
BRANCH  25  28
ATOM     28  O   UNL     1      -2.824   6.598 -31.111  1.00  0.00    -0.504 OA
ATOM     29  H   UNL     1      -3.036   6.376 -32.034  1.00  0.00     0.293 HD
ENDBRANCH  25  28
BRANCH  27  30
ATOM     30  O   UNL     1      -1.578   6.196 -28.739  1.00  0.00    -0.504 OA
ATOM     31  H   UNL     1      -1.087   6.341 -29.573  1.00  0.00     0.293 HD
ENDBRANCH  27  30
ENDBRANCH  21  22
ENDBRANCH  18  20
ENDBRANCH   1  18
TORSDOF 12
ENDMDL
MODEL 9
REMARK VINA RESULT:      -7.6      1.834      3.401
REMARK SMILES O=C(/C=C/c1ccc(O)c(O)c1)O[C@H](Cc1ccc(O)c(O)c1)C(=O)O
REMARK SMILES IDX 13 1 14 2 15 3 16 4 17 5 18 6 19 7 23 8 21 9 20 10 22 12
REMARK SMILES IDX 24 14 25 15 26 16 2 18 1 19 3 20 4 21 5 22 12 23 6 24 10 25
REMARK SMILES IDX 7 26 8 27 11 28 9 30
REMARK H PARENT 20 11 22 13 26 17 11 29 9 31
ROOT
ATOM      1  O   UNL     1      -9.077  -1.171 -30.684  1.00  0.00    -0.447 OA
ENDROOT
BRANCH   1   2
ATOM      2  C   UNL     1      -8.898  -0.167 -31.698  1.00  0.00     0.290 C 
BRANCH   2   3
ATOM      3  C   UNL     1      -8.914   1.212 -31.017  1.00  0.00     0.093 C 
BRANCH   3   4
ATOM      4  C   UNL     1      -7.526   1.766 -30.771  1.00  0.00    -0.040 A 
ATOM      5  C   UNL     1      -6.552   1.710 -31.782  1.00  0.00     0.008 A 
ATOM      6  C   UNL     1      -5.270   2.229 -31.573  1.00  0.00     0.050 A 
ATOM      7  C   UNL     1      -4.965   2.808 -30.349  1.00  0.00     0.157 A 
ATOM      8  C   UNL     1      -7.193   2.340 -29.535  1.00  0.00     0.054 A 
ATOM      9  C   UNL     1      -5.923   2.862 -29.340  1.00  0.00     0.157 A 
BRANCH   7  10
ATOM     10  O   UNL     1      -3.733   3.341 -30.085  1.00  0.00    -0.504 OA
ATOM     11  H   UNL     1      -3.558   3.240 -29.133  1.00  0.00     0.293 HD
ENDBRANCH   7  10
BRANCH   9  12
ATOM     12  O   UNL     1      -5.617   3.435 -28.139  1.00  0.00    -0.504 OA
ATOM     13  H   UNL     1      -6.226   3.011 -27.503  1.00  0.00     0.293 HD
ENDBRANCH   9  12
ENDBRANCH   3   4
ENDBRANCH   2   3
BRANCH   2  14
ATOM     14  C   UNL     1     -10.000  -0.228 -32.766  1.00  0.00     0.345 C 
ATOM     15  O   UNL     1     -11.175   0.043 -32.565  1.00  0.00    -0.248 OA
BRANCH  14  16
ATOM     16  O   UNL     1      -9.560  -0.605 -33.990  1.00  0.00    -0.478 OA
ATOM     17  H   UNL     1      -9.210   0.137 -34.541  1.00  0.00     0.296 HD
ENDBRANCH  14  16
ENDBRANCH   2  14
ENDBRANCH   1   2
BRANCH   1  18
ATOM     18  C   UNL     1      -8.165  -2.169 -30.699  1.00  0.00     0.331 C 
ATOM     19  O   UNL     1      -8.426  -3.352 -30.856  1.00  0.00    -0.247 OA
BRANCH  18  20
ATOM     20  C   UNL     1      -6.832  -1.602 -30.437  1.00  0.00     0.094 C 
ATOM     21  C   UNL     1      -6.432  -1.393 -29.175  1.00  0.00     0.016 C 
BRANCH  21  22
ATOM     22  C   UNL     1      -5.130  -0.811 -28.827  1.00  0.00    -0.021 A 
ATOM     23  C   UNL     1      -4.118  -0.643 -29.787  1.00  0.00     0.058 A 
ATOM     24  C   UNL     1      -4.918  -0.352 -27.517  1.00  0.00     0.012 A 
ATOM     25  C   UNL     1      -2.915  -0.047 -29.421  1.00  0.00     0.157 A 
ATOM     26  C   UNL     1      -3.706   0.242 -27.157  1.00  0.00     0.051 A 
ATOM     27  C   UNL     1      -2.714   0.388 -28.114  1.00  0.00     0.157 A 
BRANCH  25  28
ATOM     28  O   UNL     1      -1.899   0.143 -30.315  1.00  0.00    -0.504 OA
ATOM     29  H   UNL     1      -1.385   0.920 -30.036  1.00  0.00     0.293 HD
ENDBRANCH  25  28
BRANCH  27  30
ATOM     30  O   UNL     1      -1.532   0.976 -27.764  1.00  0.00    -0.504 OA
ATOM     31  H   UNL     1      -1.544   1.840 -28.222  1.00  0.00     0.293 HD
ENDBRANCH  27  30
ENDBRANCH  21  22
ENDBRANCH  18  20
ENDBRANCH   1  18
TORSDOF 12
ENDMDL
MODEL 10
REMARK VINA RESULT:      -7.5      2.792      6.942
REMARK SMILES O=C(/C=C/c1ccc(O)c(O)c1)O[C@H](Cc1ccc(O)c(O)c1)C(=O)O
REMARK SMILES IDX 13 1 14 2 15 3 16 4 17 5 18 6 19 7 23 8 21 9 20 10 22 12
REMARK SMILES IDX 24 14 25 15 26 16 2 18 1 19 3 20 4 21 5 22 12 23 6 24 10 25
REMARK SMILES IDX 7 26 8 27 11 28 9 30
REMARK H PARENT 20 11 22 13 26 17 11 29 9 31
ROOT
ATOM      1  O   UNL     1      -5.541  -0.404 -28.716  1.00  0.00    -0.447 OA
ENDROOT
BRANCH   1   2
ATOM      2  C   UNL     1      -6.629   0.496 -28.989  1.00  0.00     0.290 C 
BRANCH   2   3
ATOM      3  C   UNL     1      -6.434   1.071 -30.403  1.00  0.00     0.093 C 
BRANCH   3   4
ATOM      4  C   UNL     1      -7.626   0.832 -31.307  1.00  0.00    -0.040 A 
ATOM      5  C   UNL     1      -7.482   0.906 -32.703  1.00  0.00     0.008 A 
ATOM      6  C   UNL     1      -8.571   0.675 -33.550  1.00  0.00     0.050 A 
ATOM      7  C   UNL     1      -9.806   0.367 -32.996  1.00  0.00     0.157 A 
ATOM      8  C   UNL     1      -8.886   0.537 -30.766  1.00  0.00     0.054 A 
ATOM      9  C   UNL     1      -9.958   0.300 -31.614  1.00  0.00     0.157 A 
BRANCH   7  10
ATOM     10  O   UNL     1     -10.907   0.123 -33.770  1.00  0.00    -0.504 OA
ATOM     11  H   UNL     1     -10.688  -0.596 -34.389  1.00  0.00     0.293 HD
ENDBRANCH   7  10
BRANCH   9  12
ATOM     12  O   UNL     1     -11.176  -0.006 -31.076  1.00  0.00    -0.504 OA
ATOM     13  H   UNL     1     -11.822   0.408 -31.682  1.00  0.00     0.293 HD
ENDBRANCH   9  12
ENDBRANCH   3   4
ENDBRANCH   2   3
BRANCH   2  14
ATOM     14  C   UNL     1      -6.693   1.643 -27.970  1.00  0.00     0.345 C 
ATOM     15  O   UNL     1      -7.512   1.722 -27.065  1.00  0.00    -0.248 OA
BRANCH  14  16
ATOM     16  O   UNL     1      -5.738   2.588 -28.145  1.00  0.00    -0.478 OA
ATOM     17  H   UNL     1      -5.629   3.200 -27.376  1.00  0.00     0.296 HD
ENDBRANCH  14  16
ENDBRANCH   2  14
ENDBRANCH   1   2
BRANCH   1  18
ATOM     18  C   UNL     1      -5.578  -1.572 -29.396  1.00  0.00     0.331 C 
ATOM     19  O   UNL     1      -4.815  -1.881 -30.298  1.00  0.00    -0.247 OA
BRANCH  18  20
ATOM     20  C   UNL     1      -6.717  -2.369 -28.912  1.00  0.00     0.094 C 
ATOM     21  C   UNL     1      -7.558  -2.933 -29.791  1.00  0.00     0.016 C 
BRANCH  21  22
ATOM     22  C   UNL     1      -8.729  -3.724 -29.394  1.00  0.00    -0.021 A 
ATOM     23  C   UNL     1      -9.463  -4.476 -30.327  1.00  0.00     0.058 A 
ATOM     24  C   UNL     1      -9.082  -3.781 -28.035  1.00  0.00     0.012 A 
ATOM     25  C   UNL     1     -10.539  -5.245 -29.896  1.00  0.00     0.157 A 
ATOM     26  C   UNL     1     -10.167  -4.553 -27.613  1.00  0.00     0.051 A 
ATOM     27  C   UNL     1     -10.887  -5.278 -28.549  1.00  0.00     0.157 A 
BRANCH  25  28
ATOM     28  O   UNL     1     -11.284  -5.996 -30.762  1.00  0.00    -0.504 OA
ATOM     29  H   UNL     1     -12.225  -5.829 -30.582  1.00  0.00     0.293 HD
ENDBRANCH  25  28
BRANCH  27  30
ATOM     30  O   UNL     1     -11.942  -6.038 -28.135  1.00  0.00    -0.504 OA
ATOM     31  H   UNL     1     -11.667  -6.385 -27.262  1.00  0.00     0.293 HD
ENDBRANCH  27  30
ENDBRANCH  21  22
ENDBRANCH  18  20
ENDBRANCH   1  18
TORSDOF 12
ENDMDL
