MODEL 1
REMARK VINA RESULT:      -8.1      0.000      0.000
REMARK SMILES O=C(/C=C/c1ccc(O)c(O)c1)O[C@H](Cc1ccc(O)c(O)c1)C(=O)O
REMARK SMILES IDX 13 1 14 2 15 3 16 4 17 5 18 6 19 7 23 8 21 9 20 10 22 12
REMARK SMILES IDX 24 14 25 15 26 16 2 18 1 19 3 20 4 21 5 22 12 23 6 24 10 25
REMARK SMILES IDX 7 26 8 27 11 28 9 30
REMARK H PARENT 20 11 22 13 26 17 11 29 9 31
ROOT
ATOM      1  O   UNL     1      -8.299  -0.159 -32.217  1.00  0.00    -0.447 OA
ENDROOT
BRANCH   1   2
ATOM      2  C   UNL     1      -9.416   0.487 -31.582  1.00  0.00     0.290 C 
BRANCH   2   3
ATOM      3  C   UNL     1      -9.868  -0.387 -30.400  1.00  0.00     0.093 C 
BRANCH   3   4
ATOM      4  C   UNL     1      -8.711  -0.902 -29.570  1.00  0.00    -0.040 A 
ATOM      5  C   UNL     1      -8.242  -2.215 -29.746  1.00  0.00     0.008 A 
ATOM      6  C   UNL     1      -7.166  -2.700 -28.995  1.00  0.00     0.050 A 
ATOM      7  C   UNL     1      -6.557  -1.866 -28.067  1.00  0.00     0.157 A 
ATOM      8  C   UNL     1      -8.094  -0.080 -28.615  1.00  0.00     0.054 A 
ATOM      9  C   UNL     1      -7.021  -0.566 -27.882  1.00  0.00     0.157 A 
BRANCH   7  10
ATOM     10  O   UNL     1      -5.496  -2.277 -27.308  1.00  0.00    -0.504 OA
ATOM     11  H   UNL     1      -5.613  -3.223 -27.114  1.00  0.00     0.293 HD
ENDBRANCH   7  10
BRANCH   9  12
ATOM     12  O   UNL     1      -6.415   0.250 -26.970  1.00  0.00    -0.504 OA
ATOM     13  H   UNL     1      -6.915   1.089 -27.022  1.00  0.00     0.293 HD
ENDBRANCH   9  12
ENDBRANCH   3   4
ENDBRANCH   2   3
BRANCH   2  14
ATOM     14  C   UNL     1     -10.589   0.688 -32.553  1.00  0.00     0.345 C 
ATOM     15  O   UNL     1     -11.301  -0.211 -32.976  1.00  0.00    -0.248 OA
BRANCH  14  16
ATOM     16  O   UNL     1     -10.792   1.979 -32.911  1.00  0.00    -0.478 OA
ATOM     17  H   UNL     1     -11.212   2.091 -33.799  1.00  0.00     0.296 HD
ENDBRANCH  14  16
ENDBRANCH   2  14
ENDBRANCH   1   2
BRANCH   1  18
ATOM     18  C   UNL     1      -7.436   0.673 -32.843  1.00  0.00     0.331 C 
ATOM     19  O   UNL     1      -7.514   1.010 -34.014  1.00  0.00    -0.247 OA
BRANCH  18  20
ATOM     20  C   UNL     1      -6.369   1.050 -31.901  1.00  0.00     0.094 C 
ATOM     21  C   UNL     1      -5.612   0.099 -31.335  1.00  0.00     0.016 C 
BRANCH  21  22
ATOM     22  C   UNL     1      -4.543   0.387 -30.371  1.00  0.00    -0.021 A 
ATOM     23  C   UNL     1      -4.499   1.597 -29.659  1.00  0.00     0.058 A 
ATOM     24  C   UNL     1      -3.581  -0.602 -30.108  1.00  0.00     0.012 A 
ATOM     25  C   UNL     1      -3.492   1.807 -28.722  1.00  0.00     0.157 A 
ATOM     26  C   UNL     1      -2.571  -0.380 -29.168  1.00  0.00     0.051 A 
ATOM     27  C   UNL     1      -2.535   0.825 -28.484  1.00  0.00     0.157 A 
BRANCH  25  28
ATOM     28  O   UNL     1      -3.405   2.965 -28.001  1.00  0.00    -0.504 OA
ATOM     29  H   UNL     1      -3.240   2.735 -27.070  1.00  0.00     0.293 HD
ENDBRANCH  25  28
BRANCH  27  30
ATOM     30  O   UNL     1      -1.553   1.038 -27.561  1.00  0.00    -0.504 OA
ATOM     31  H   UNL     1      -1.974   1.602 -26.881  1.00  0.00     0.293 HD
ENDBRANCH  27  30
ENDBRANCH  21  22
ENDBRANCH  18  20
ENDBRANCH   1  18
TORSDOF 12
ENDMDL
MODEL 2
REMARK VINA RESULT:      -7.9      0.670      1.317
REMARK SMILES O=C(/C=C/c1ccc(O)c(O)c1)O[C@H](Cc1ccc(O)c(O)c1)C(=O)O
REMARK SMILES IDX 13 1 14 2 15 3 16 4 17 5 18 6 19 7 23 8 21 9 20 10 22 12
REMARK SMILES IDX 24 14 25 15 26 16 2 18 1 19 3 20 4 21 5 22 12 23 6 24 10 25
REMARK SMILES IDX 7 26 8 27 11 28 9 30
REMARK H PARENT 20 11 22 13 26 17 11 29 9 31
ROOT
ATOM      1  O   UNL     1      -8.457  -0.061 -32.111  1.00  0.00    -0.447 OA
ENDROOT
BRANCH   1   2
ATOM      2  C   UNL     1      -9.573   0.691 -31.604  1.00  0.00     0.290 C 
BRANCH   2   3
ATOM      3  C   UNL     1     -10.115  -0.033 -30.359  1.00  0.00     0.093 C 
BRANCH   3   4
ATOM      4  C   UNL     1      -9.018  -0.572 -29.465  1.00  0.00    -0.040 A 
ATOM      5  C   UNL     1      -8.156   0.310 -28.791  1.00  0.00     0.008 A 
ATOM      6  C   UNL     1      -7.147  -0.174 -27.952  1.00  0.00     0.050 A 
ATOM      7  C   UNL     1      -7.003  -1.545 -27.787  1.00  0.00     0.157 A 
ATOM      8  C   UNL     1      -8.846  -1.954 -29.298  1.00  0.00     0.054 A 
ATOM      9  C   UNL     1      -7.848  -2.425 -28.456  1.00  0.00     0.157 A 
BRANCH   7  10
ATOM     10  O   UNL     1      -6.042  -2.081 -26.974  1.00  0.00    -0.504 OA
ATOM     11  H   UNL     1      -5.741  -2.916 -27.373  1.00  0.00     0.293 HD
ENDBRANCH   7  10
BRANCH   9  12
ATOM     12  O   UNL     1      -7.703  -3.772 -28.287  1.00  0.00    -0.504 OA
ATOM     13  H   UNL     1      -8.613  -4.100 -28.144  1.00  0.00     0.293 HD
ENDBRANCH   9  12
ENDBRANCH   3   4
ENDBRANCH   2   3
BRANCH   2  14
ATOM     14  C   UNL     1     -10.691   0.830 -32.647  1.00  0.00     0.345 C 
ATOM     15  O   UNL     1     -11.358  -0.101 -33.078  1.00  0.00    -0.248 OA
BRANCH  14  16
ATOM     16  O   UNL     1     -10.902   2.102 -33.063  1.00  0.00    -0.478 OA
ATOM     17  H   UNL     1     -11.432   2.174 -33.894  1.00  0.00     0.296 HD
ENDBRANCH  14  16
ENDBRANCH   2  14
ENDBRANCH   1   2
BRANCH   1  18
ATOM     18  C   UNL     1      -7.484   0.678 -32.690  1.00  0.00     0.331 C 
ATOM     19  O   UNL     1      -7.433   0.957 -33.878  1.00  0.00    -0.247 OA
BRANCH  18  20
ATOM     20  C   UNL     1      -6.483   1.033 -31.671  1.00  0.00     0.094 C 
ATOM     21  C   UNL     1      -5.434   0.226 -31.458  1.00  0.00     0.016 C 
BRANCH  21  22
ATOM     22  C   UNL     1      -4.403   0.493 -30.447  1.00  0.00    -0.021 A 
ATOM     23  C   UNL     1      -4.376   1.696 -29.722  1.00  0.00     0.058 A 
ATOM     24  C   UNL     1      -3.462  -0.507 -30.155  1.00  0.00     0.012 A 
ATOM     25  C   UNL     1      -3.406   1.887 -28.743  1.00  0.00     0.157 A 
ATOM     26  C   UNL     1      -2.489  -0.305 -29.173  1.00  0.00     0.051 A 
ATOM     27  C   UNL     1      -2.469   0.892 -28.476  1.00  0.00     0.157 A 
BRANCH  25  28
ATOM     28  O   UNL     1      -3.337   3.037 -28.007  1.00  0.00    -0.504 OA
ATOM     29  H   UNL     1      -3.031   2.810 -27.112  1.00  0.00     0.293 HD
ENDBRANCH  25  28
BRANCH  27  30
ATOM     30  O   UNL     1      -1.524   1.087 -27.512  1.00  0.00    -0.504 OA
ATOM     31  H   UNL     1      -1.857   0.589 -26.738  1.00  0.00     0.293 HD
ENDBRANCH  27  30
ENDBRANCH  21  22
ENDBRANCH  18  20
ENDBRANCH   1  18
TORSDOF 12
ENDMDL
MODEL 3
REMARK VINA RESULT:      -7.7      2.824      7.041
REMARK SMILES O=C(/C=C/c1ccc(O)c(O)c1)O[C@H](Cc1ccc(O)c(O)c1)C(=O)O
REMARK SMILES IDX 13 1 14 2 15 3 16 4 17 5 18 6 19 7 23 8 21 9 20 10 22 12
REMARK SMILES IDX 24 14 25 15 26 16 2 18 1 19 3 20 4 21 5 22 12 23 6 24 10 25
REMARK SMILES IDX 7 26 8 27 11 28 9 30
REMARK H PARENT 20 11 22 13 26 17 11 29 9 31
ROOT
ATOM      1  O   UNL     1      -5.942  -0.638 -30.789  1.00  0.00    -0.447 OA
ENDROOT
BRANCH   1   2
ATOM      2  C   UNL     1      -5.786   0.699 -30.283  1.00  0.00     0.290 C 
BRANCH   2   3
ATOM      3  C   UNL     1      -6.377   1.676 -31.315  1.00  0.00     0.093 C 
BRANCH   3   4
ATOM      4  C   UNL     1      -7.687   1.194 -31.901  1.00  0.00    -0.040 A 
ATOM      5  C   UNL     1      -7.797   0.943 -33.280  1.00  0.00     0.008 A 
ATOM      6  C   UNL     1      -8.997   0.485 -33.833  1.00  0.00     0.050 A 
ATOM      7  C   UNL     1     -10.090   0.276 -33.003  1.00  0.00     0.157 A 
ATOM      8  C   UNL     1      -8.808   0.992 -31.081  1.00  0.00     0.054 A 
ATOM      9  C   UNL     1      -9.991   0.528 -31.637  1.00  0.00     0.157 A 
BRANCH   7  10
ATOM     10  O   UNL     1     -11.288  -0.179 -33.481  1.00  0.00    -0.504 OA
ATOM     11  H   UNL     1     -11.606   0.454 -34.148  1.00  0.00     0.293 HD
ENDBRANCH   7  10
BRANCH   9  12
ATOM     12  O   UNL     1     -11.069   0.318 -30.826  1.00  0.00    -0.504 OA
ATOM     13  H   UNL     1     -10.708   0.378 -29.919  1.00  0.00     0.293 HD
ENDBRANCH   9  12
ENDBRANCH   3   4
ENDBRANCH   2   3
BRANCH   2  14
ATOM     14  C   UNL     1      -4.312   1.048 -30.030  1.00  0.00     0.345 C 
ATOM     15  O   UNL     1      -3.873   1.480 -28.973  1.00  0.00    -0.248 OA
BRANCH  14  16
ATOM     16  O   UNL     1      -3.503   0.825 -31.093  1.00  0.00    -0.478 OA
ATOM     17  H   UNL     1      -3.965   0.855 -31.967  1.00  0.00     0.296 HD
ENDBRANCH  14  16
ENDBRANCH   2  14
ENDBRANCH   1   2
BRANCH   1  18
ATOM     18  C   UNL     1      -5.550  -1.619 -29.946  1.00  0.00     0.331 C 
ATOM     19  O   UNL     1      -4.391  -1.951 -29.750  1.00  0.00    -0.247 OA
BRANCH  18  20
ATOM     20  C   UNL     1      -6.744  -2.248 -29.358  1.00  0.00     0.094 C 
ATOM     21  C   UNL     1      -7.414  -3.182 -30.048  1.00  0.00     0.016 C 
BRANCH  21  22
ATOM     22  C   UNL     1      -8.625  -3.842 -29.546  1.00  0.00    -0.021 A 
ATOM     23  C   UNL     1      -9.439  -4.625 -30.382  1.00  0.00     0.058 A 
ATOM     24  C   UNL     1      -8.938  -3.740 -28.181  1.00  0.00     0.012 A 
ATOM     25  C   UNL     1     -10.553  -5.267 -29.851  1.00  0.00     0.157 A 
ATOM     26  C   UNL     1     -10.061  -4.386 -27.657  1.00  0.00     0.051 A 
ATOM     27  C   UNL     1     -10.860  -5.144 -28.499  1.00  0.00     0.157 A 
BRANCH  25  28
ATOM     28  O   UNL     1     -11.376  -6.042 -30.619  1.00  0.00    -0.504 OA
ATOM     29  H   UNL     1     -12.025  -6.473 -30.036  1.00  0.00     0.293 HD
ENDBRANCH  25  28
BRANCH  27  30
ATOM     30  O   UNL     1     -11.953  -5.780 -27.986  1.00  0.00    -0.504 OA
ATOM     31  H   UNL     1     -12.690  -5.511 -28.570  1.00  0.00     0.293 HD
ENDBRANCH  27  30
ENDBRANCH  21  22
ENDBRANCH  18  20
ENDBRANCH   1  18
TORSDOF 12
ENDMDL
MODEL 4
REMARK VINA RESULT:      -7.7      2.141      2.786
REMARK SMILES O=C(/C=C/c1ccc(O)c(O)c1)O[C@H](Cc1ccc(O)c(O)c1)C(=O)O
REMARK SMILES IDX 13 1 14 2 15 3 16 4 17 5 18 6 19 7 23 8 21 9 20 10 22 12
REMARK SMILES IDX 24 14 25 15 26 16 2 18 1 19 3 20 4 21 5 22 12 23 6 24 10 25
REMARK SMILES IDX 7 26 8 27 11 28 9 30
REMARK H PARENT 20 11 22 13 26 17 11 29 9 31
ROOT
ATOM      1  O   UNL     1      -7.975   0.052 -33.079  1.00  0.00    -0.447 OA
ENDROOT
BRANCH   1   2
ATOM      2  C   UNL     1      -9.194   0.002 -32.319  1.00  0.00     0.290 C 
BRANCH   2   3
ATOM      3  C   UNL     1      -9.458  -1.463 -31.929  1.00  0.00     0.093 C 
BRANCH   3   4
ATOM      4  C   UNL     1      -9.362  -1.704 -30.437  1.00  0.00    -0.040 A 
ATOM      5  C   UNL     1      -9.754  -0.704 -29.531  1.00  0.00     0.008 A 
ATOM      6  C   UNL     1      -9.682  -0.917 -28.150  1.00  0.00     0.050 A 
ATOM      7  C   UNL     1      -9.217  -2.137 -27.677  1.00  0.00     0.157 A 
ATOM      8  C   UNL     1      -8.879  -2.923 -29.939  1.00  0.00     0.054 A 
ATOM      9  C   UNL     1      -8.820  -3.130 -28.568  1.00  0.00     0.157 A 
BRANCH   7  10
ATOM     10  O   UNL     1      -9.131  -2.410 -26.340  1.00  0.00    -0.504 OA
ATOM     11  H   UNL     1      -8.287  -2.053 -26.013  1.00  0.00     0.293 HD
ENDBRANCH   7  10
BRANCH   9  12
ATOM     12  O   UNL     1      -8.367  -4.328 -28.096  1.00  0.00    -0.504 OA
ATOM     13  H   UNL     1      -9.099  -4.953 -28.271  1.00  0.00     0.293 HD
ENDBRANCH   9  12
ENDBRANCH   3   4
ENDBRANCH   2   3
BRANCH   2  14
ATOM     14  C   UNL     1     -10.389   0.546 -33.115  1.00  0.00     0.345 C 
ATOM     15  O   UNL     1     -10.956  -0.057 -34.016  1.00  0.00    -0.248 OA
BRANCH  14  16
ATOM     16  O   UNL     1     -10.792   1.781 -32.730  1.00  0.00    -0.478 OA
ATOM     17  H   UNL     1     -10.414   2.517 -33.271  1.00  0.00     0.296 HD
ENDBRANCH  14  16
ENDBRANCH   2  14
ENDBRANCH   1   2
BRANCH   1  18
ATOM     18  C   UNL     1      -7.030   0.888 -32.593  1.00  0.00     0.331 C 
ATOM     19  O   UNL     1      -6.384   1.678 -33.263  1.00  0.00    -0.247 OA
BRANCH  18  20
ATOM     20  C   UNL     1      -6.875   0.644 -31.149  1.00  0.00     0.094 C 
ATOM     21  C   UNL     1      -6.049  -0.321 -30.721  1.00  0.00     0.016 C 
BRANCH  21  22
ATOM     22  C   UNL     1      -5.853  -0.645 -29.302  1.00  0.00    -0.021 A 
ATOM     23  C   UNL     1      -6.198   0.261 -28.285  1.00  0.00     0.058 A 
ATOM     24  C   UNL     1      -5.370  -1.917 -28.956  1.00  0.00     0.012 A 
ATOM     25  C   UNL     1      -6.036  -0.107 -26.954  1.00  0.00     0.157 A 
ATOM     26  C   UNL     1      -5.206  -2.275 -27.615  1.00  0.00     0.051 A 
ATOM     27  C   UNL     1      -5.540  -1.365 -26.625  1.00  0.00     0.157 A 
BRANCH  25  28
ATOM     28  O   UNL     1      -6.359   0.735 -25.926  1.00  0.00    -0.504 OA
ATOM     29  H   UNL     1      -5.541   1.153 -25.603  1.00  0.00     0.293 HD
ENDBRANCH  25  28
BRANCH  27  30
ATOM     30  O   UNL     1      -5.387  -1.719 -25.316  1.00  0.00    -0.504 OA
ATOM     31  H   UNL     1      -4.768  -2.476 -25.337  1.00  0.00     0.293 HD
ENDBRANCH  27  30
ENDBRANCH  21  22
ENDBRANCH  18  20
ENDBRANCH   1  18
TORSDOF 12
ENDMDL
MODEL 5
REMARK VINA RESULT:      -7.7      1.721      6.154
REMARK SMILES O=C(/C=C/c1ccc(O)c(O)c1)O[C@H](Cc1ccc(O)c(O)c1)C(=O)O
REMARK SMILES IDX 13 1 14 2 15 3 16 4 17 5 18 6 19 7 23 8 21 9 20 10 22 12
REMARK SMILES IDX 24 14 25 15 26 16 2 18 1 19 3 20 4 21 5 22 12 23 6 24 10 25
REMARK SMILES IDX 7 26 8 27 11 28 9 30
REMARK H PARENT 20 11 22 13 26 17 11 29 9 31
ROOT
ATOM      1  O   UNL     1      -4.277   1.598 -28.463  1.00  0.00    -0.447 OA
ENDROOT
BRANCH   1   2
ATOM      2  C   UNL     1      -3.649   0.388 -28.921  1.00  0.00     0.290 C 
BRANCH   2   3
ATOM      3  C   UNL     1      -4.112  -0.766 -28.016  1.00  0.00     0.093 C 
BRANCH   3   4
ATOM      4  C   UNL     1      -5.481  -1.297 -28.390  1.00  0.00    -0.040 A 
ATOM      5  C   UNL     1      -5.746  -1.705 -29.709  1.00  0.00     0.008 A 
ATOM      6  C   UNL     1      -7.001  -2.209 -30.066  1.00  0.00     0.050 A 
ATOM      7  C   UNL     1      -7.992  -2.306 -29.098  1.00  0.00     0.157 A 
ATOM      8  C   UNL     1      -6.500  -1.387 -27.431  1.00  0.00     0.054 A 
ATOM      9  C   UNL     1      -7.739  -1.897 -27.792  1.00  0.00     0.157 A 
BRANCH   7  10
ATOM     10  O   UNL     1      -9.236  -2.797 -29.382  1.00  0.00    -0.504 OA
ATOM     11  H   UNL     1      -9.500  -2.465 -30.257  1.00  0.00     0.293 HD
ENDBRANCH   7  10
BRANCH   9  12
ATOM     12  O   UNL     1      -8.717  -1.998 -26.845  1.00  0.00    -0.504 OA
ATOM     13  H   UNL     1      -8.395  -1.453 -26.100  1.00  0.00     0.293 HD
ENDBRANCH   9  12
ENDBRANCH   3   4
ENDBRANCH   2   3
BRANCH   2  14
ATOM     14  C   UNL     1      -2.117   0.489 -28.883  1.00  0.00     0.345 C 
ATOM     15  O   UNL     1      -1.379   0.205 -29.817  1.00  0.00    -0.248 OA
BRANCH  14  16
ATOM     16  O   UNL     1      -1.623   0.939 -27.704  1.00  0.00    -0.478 OA
ATOM     17  H   UNL     1      -2.289   0.978 -26.975  1.00  0.00     0.296 HD
ENDBRANCH  14  16
ENDBRANCH   2  14
ENDBRANCH   1   2
BRANCH   1  18
ATOM     18  C   UNL     1      -4.736   2.410 -29.441  1.00  0.00     0.331 C 
ATOM     19  O   UNL     1      -4.189   3.437 -29.812  1.00  0.00    -0.247 OA
BRANCH  18  20
ATOM     20  C   UNL     1      -6.020   1.885 -29.934  1.00  0.00     0.094 C 
ATOM     21  C   UNL     1      -6.216   1.730 -31.252  1.00  0.00     0.016 C 
BRANCH  21  22
ATOM     22  C   UNL     1      -7.472   1.234 -31.827  1.00  0.00    -0.021 A 
ATOM     23  C   UNL     1      -8.616   1.032 -31.037  1.00  0.00     0.058 A 
ATOM     24  C   UNL     1      -7.547   1.021 -33.213  1.00  0.00     0.012 A 
ATOM     25  C   UNL     1      -9.796   0.602 -31.635  1.00  0.00     0.157 A 
ATOM     26  C   UNL     1      -8.736   0.585 -33.804  1.00  0.00     0.051 A 
ATOM     27  C   UNL     1      -9.851   0.379 -33.008  1.00  0.00     0.157 A 
BRANCH  25  28
ATOM     28  O   UNL     1     -10.938   0.393 -30.913  1.00  0.00    -0.504 OA
ATOM     29  H   UNL     1     -11.323  -0.458 -31.187  1.00  0.00     0.293 HD
ENDBRANCH  25  28
BRANCH  27  30
ATOM     30  O   UNL     1     -11.014  -0.039 -33.586  1.00  0.00    -0.504 OA
ATOM     31  H   UNL     1     -10.728  -0.578 -34.351  1.00  0.00     0.293 HD
ENDBRANCH  27  30
ENDBRANCH  21  22
ENDBRANCH  18  20
ENDBRANCH   1  18
TORSDOF 12
ENDMDL
MODEL 6
REMARK VINA RESULT:      -7.7      1.940      3.573
REMARK SMILES O=C(/C=C/c1ccc(O)c(O)c1)O[C@H](Cc1ccc(O)c(O)c1)C(=O)O
REMARK SMILES IDX 13 1 14 2 15 3 16 4 17 5 18 6 19 7 23 8 21 9 20 10 22 12
REMARK SMILES IDX 24 14 25 15 26 16 2 18 1 19 3 20 4 21 5 22 12 23 6 24 10 25
REMARK SMILES IDX 7 26 8 27 11 28 9 30
REMARK H PARENT 20 11 22 13 26 17 11 29 9 31
ROOT
ATOM      1  O   UNL     1      -9.229  -1.042 -30.640  1.00  0.00    -0.447 OA
ENDROOT
BRANCH   1   2
ATOM      2  C   UNL     1      -8.910  -0.171 -31.739  1.00  0.00     0.290 C 
BRANCH   2   3
ATOM      3  C   UNL     1      -8.893   1.276 -31.216  1.00  0.00     0.093 C 
BRANCH   3   4
ATOM      4  C   UNL     1      -7.497   1.777 -30.911  1.00  0.00    -0.040 A 
ATOM      5  C   UNL     1      -7.231   2.441 -29.701  1.00  0.00     0.008 A 
ATOM      6  C   UNL     1      -5.943   2.898 -29.402  1.00  0.00     0.050 A 
ATOM      7  C   UNL     1      -4.919   2.687 -30.316  1.00  0.00     0.157 A 
ATOM      8  C   UNL     1      -6.453   1.590 -31.830  1.00  0.00     0.054 A 
ATOM      9  C   UNL     1      -5.177   2.037 -31.519  1.00  0.00     0.157 A 
BRANCH   7  10
ATOM     10  O   UNL     1      -3.638   3.102 -30.078  1.00  0.00    -0.504 OA
ATOM     11  H   UNL     1      -3.550   4.014 -30.408  1.00  0.00     0.293 HD
ENDBRANCH   7  10
BRANCH   9  12
ATOM     12  O   UNL     1      -4.165   1.831 -32.412  1.00  0.00    -0.504 OA
ATOM     13  H   UNL     1      -3.389   2.267 -32.008  1.00  0.00     0.293 HD
ENDBRANCH   9  12
ENDBRANCH   3   4
ENDBRANCH   2   3
BRANCH   2  14
ATOM     14  C   UNL     1      -9.929  -0.294 -32.881  1.00  0.00     0.345 C 
ATOM     15  O   UNL     1      -9.643  -0.561 -34.040  1.00  0.00    -0.248 OA
BRANCH  14  16
ATOM     16  O   UNL     1     -11.212  -0.089 -32.499  1.00  0.00    -0.478 OA
ATOM     17  H   UNL     1     -11.884  -0.494 -33.101  1.00  0.00     0.296 HD
ENDBRANCH  14  16
ENDBRANCH   2  14
ENDBRANCH   1   2
BRANCH   1  18
ATOM     18  C   UNL     1      -8.278  -1.954 -30.337  1.00  0.00     0.331 C 
ATOM     19  O   UNL     1      -8.376  -3.156 -30.529  1.00  0.00    -0.247 OA
BRANCH  18  20
ATOM     20  C   UNL     1      -7.146  -1.267 -29.694  1.00  0.00     0.094 C 
ATOM     21  C   UNL     1      -5.889  -1.595 -30.028  1.00  0.00     0.016 C 
BRANCH  21  22
ATOM     22  C   UNL     1      -4.706  -0.976 -29.419  1.00  0.00    -0.021 A 
ATOM     23  C   UNL     1      -3.547  -0.709 -30.167  1.00  0.00     0.058 A 
ATOM     24  C   UNL     1      -4.761  -0.584 -28.072  1.00  0.00     0.012 A 
ATOM     25  C   UNL     1      -2.466  -0.081 -29.557  1.00  0.00     0.157 A 
ATOM     26  C   UNL     1      -3.668   0.042 -27.467  1.00  0.00     0.051 A 
ATOM     27  C   UNL     1      -2.528   0.287 -28.216  1.00  0.00     0.157 A 
BRANCH  25  28
ATOM     28  O   UNL     1      -1.316   0.205 -30.240  1.00  0.00    -0.504 OA
ATOM     29  H   UNL     1      -1.239   1.171 -30.320  1.00  0.00     0.293 HD
ENDBRANCH  25  28
BRANCH  27  30
ATOM     30  O   UNL     1      -1.464   0.906 -27.627  1.00  0.00    -0.504 OA
ATOM     31  H   UNL     1      -0.883   1.158 -28.374  1.00  0.00     0.293 HD
ENDBRANCH  27  30
ENDBRANCH  21  22
ENDBRANCH  18  20
ENDBRANCH   1  18
TORSDOF 12
ENDMDL
MODEL 7
REMARK VINA RESULT:      -7.6      1.585      1.991
REMARK SMILES O=C(/C=C/c1ccc(O)c(O)c1)O[C@H](Cc1ccc(O)c(O)c1)C(=O)O
REMARK SMILES IDX 13 1 14 2 15 3 16 4 17 5 18 6 19 7 23 8 21 9 20 10 22 12
REMARK SMILES IDX 24 14 25 15 26 16 2 18 1 19 3 20 4 21 5 22 12 23 6 24 10 25
REMARK SMILES IDX 7 26 8 27 11 28 9 30
REMARK H PARENT 20 11 22 13 26 17 11 29 9 31
ROOT
ATOM      1  O   UNL     1      -8.042  -0.005 -32.540  1.00  0.00    -0.447 OA
ENDROOT
BRANCH   1   2
ATOM      2  C   UNL     1      -9.363  -0.031 -31.972  1.00  0.00     0.290 C 
BRANCH   2   3
ATOM      3  C   UNL     1      -9.681  -1.478 -31.557  1.00  0.00     0.093 C 
BRANCH   3   4
ATOM      4  C   UNL     1      -9.566  -1.702 -30.064  1.00  0.00    -0.040 A 
ATOM      5  C   UNL     1      -9.616  -0.612 -29.178  1.00  0.00     0.008 A 
ATOM      6  C   UNL     1      -9.524  -0.806 -27.795  1.00  0.00     0.050 A 
ATOM      7  C   UNL     1      -9.384  -2.095 -27.300  1.00  0.00     0.157 A 
ATOM      8  C   UNL     1      -9.407  -2.995 -29.544  1.00  0.00     0.054 A 
ATOM      9  C   UNL     1      -9.327  -3.179 -28.171  1.00  0.00     0.157 A 
BRANCH   7  10
ATOM     10  O   UNL     1      -9.297  -2.351 -25.959  1.00  0.00    -0.504 OA
ATOM     11  H   UNL     1      -8.355  -2.373 -25.716  1.00  0.00     0.293 HD
ENDBRANCH   7  10
BRANCH   9  12
ATOM     12  O   UNL     1      -9.192  -4.444 -27.677  1.00  0.00    -0.504 OA
ATOM     13  H   UNL     1      -9.820  -4.483 -26.928  1.00  0.00     0.293 HD
ENDBRANCH   9  12
ENDBRANCH   3   4
ENDBRANCH   2   3
BRANCH   2  14
ATOM     14  C   UNL     1     -10.423   0.463 -32.968  1.00  0.00     0.345 C 
ATOM     15  O   UNL     1     -10.880  -0.206 -33.884  1.00  0.00    -0.248 OA
BRANCH  14  16
ATOM     16  O   UNL     1     -10.839   1.734 -32.745  1.00  0.00    -0.478 OA
ATOM     17  H   UNL     1     -10.817   2.313 -33.545  1.00  0.00     0.296 HD
ENDBRANCH  14  16
ENDBRANCH   2  14
ENDBRANCH   1   2
BRANCH   1  18
ATOM     18  C   UNL     1      -7.506   1.227 -32.686  1.00  0.00     0.331 C 
ATOM     19  O   UNL     1      -7.779   2.006 -33.586  1.00  0.00    -0.247 OA
BRANCH  18  20
ATOM     20  C   UNL     1      -6.507   1.442 -31.626  1.00  0.00     0.094 C 
ATOM     21  C   UNL     1      -5.409   0.673 -31.578  1.00  0.00     0.016 C 
BRANCH  21  22
ATOM     22  C   UNL     1      -4.377   0.806 -30.543  1.00  0.00    -0.021 A 
ATOM     23  C   UNL     1      -4.297   1.944 -29.723  1.00  0.00     0.058 A 
ATOM     24  C   UNL     1      -3.490  -0.261 -30.327  1.00  0.00     0.012 A 
ATOM     25  C   UNL     1      -3.329   2.006 -28.726  1.00  0.00     0.157 A 
ATOM     26  C   UNL     1      -2.517  -0.188 -29.327  1.00  0.00     0.051 A 
ATOM     27  C   UNL     1      -2.445   0.947 -28.535  1.00  0.00     0.157 A 
BRANCH  25  28
ATOM     28  O   UNL     1      -3.210   3.088 -27.899  1.00  0.00    -0.504 OA
ATOM     29  H   UNL     1      -3.687   2.896 -27.073  1.00  0.00     0.293 HD
ENDBRANCH  25  28
BRANCH  27  30
ATOM     30  O   UNL     1      -1.501   1.015 -27.552  1.00  0.00    -0.504 OA
ATOM     31  H   UNL     1      -0.649   0.910 -28.023  1.00  0.00     0.293 HD
ENDBRANCH  27  30
ENDBRANCH  21  22
ENDBRANCH  18  20
ENDBRANCH   1  18
TORSDOF 12
ENDMDL
MODEL 8
REMARK VINA RESULT:      -7.6      1.920      3.338
REMARK SMILES O=C(/C=C/c1ccc(O)c(O)c1)O[C@H](Cc1ccc(O)c(O)c1)C(=O)O
REMARK SMILES IDX 13 1 14 2 15 3 16 4 17 5 18 6 19 7 23 8 21 9 20 10 22 12
REMARK SMILES IDX 24 14 25 15 26 16 2 18 1 19 3 20 4 21 5 22 12 23 6 24 10 25
REMARK SMILES IDX 7 26 8 27 11 28 9 30
REMARK H PARENT 20 11 22 13 26 17 11 29 9 31
ROOT
ATOM      1  O   UNL     1      -9.821  -0.782 -30.983  1.00  0.00    -0.447 OA
ENDROOT
BRANCH   1   2
ATOM      2  C   UNL     1      -9.406   0.281 -31.858  1.00  0.00     0.290 C 
BRANCH   2   3
ATOM      3  C   UNL     1      -9.216   1.553 -31.014  1.00  0.00     0.093 C 
BRANCH   3   4
ATOM      4  C   UNL     1      -7.759   1.904 -30.795  1.00  0.00    -0.040 A 
ATOM      5  C   UNL     1      -6.861   1.906 -31.876  1.00  0.00     0.008 A 
ATOM      6  C   UNL     1      -5.515   2.241 -31.691  1.00  0.00     0.050 A 
ATOM      7  C   UNL     1      -5.070   2.577 -30.420  1.00  0.00     0.157 A 
ATOM      8  C   UNL     1      -7.285   2.229 -29.515  1.00  0.00     0.054 A 
ATOM      9  C   UNL     1      -5.952   2.570 -29.343  1.00  0.00     0.157 A 
BRANCH   7  10
ATOM     10  O   UNL     1      -3.769   2.921 -30.175  1.00  0.00    -0.504 OA
ATOM     11  H   UNL     1      -3.473   3.510 -30.891  1.00  0.00     0.293 HD
ENDBRANCH   7  10
BRANCH   9  12
ATOM     12  O   UNL     1      -5.507   2.904 -28.096  1.00  0.00    -0.504 OA
ATOM     13  H   UNL     1      -5.463   2.053 -27.615  1.00  0.00     0.293 HD
ENDBRANCH   9  12
ENDBRANCH   3   4
ENDBRANCH   2   3
BRANCH   2  14
ATOM     14  C   UNL     1     -10.437   0.547 -32.964  1.00  0.00     0.345 C 
ATOM     15  O   UNL     1     -10.798  -0.280 -33.790  1.00  0.00    -0.248 OA
BRANCH  14  16
ATOM     16  O   UNL     1     -10.945   1.803 -32.954  1.00  0.00    -0.478 OA
ATOM     17  H   UNL     1     -11.932   1.841 -32.981  1.00  0.00     0.296 HD
ENDBRANCH  14  16
ENDBRANCH   2  14
ENDBRANCH   1   2
BRANCH   1  18
ATOM     18  C   UNL     1      -9.065  -1.901 -31.043  1.00  0.00     0.331 C 
ATOM     19  O   UNL     1      -9.504  -3.038 -31.115  1.00  0.00    -0.247 OA
BRANCH  18  20
ATOM     20  C   UNL     1      -7.645  -1.524 -30.947  1.00  0.00     0.094 C 
ATOM     21  C   UNL     1      -7.025  -1.552 -29.759  1.00  0.00     0.016 C 
BRANCH  21  22
ATOM     22  C   UNL     1      -5.620  -1.170 -29.572  1.00  0.00    -0.021 A 
ATOM     23  C   UNL     1      -4.747  -1.019 -30.662  1.00  0.00     0.058 A 
ATOM     24  C   UNL     1      -5.160  -0.886 -28.276  1.00  0.00     0.012 A 
ATOM     25  C   UNL     1      -3.435  -0.613 -30.439  1.00  0.00     0.157 A 
ATOM     26  C   UNL     1      -3.839  -0.484 -28.062  1.00  0.00     0.051 A 
ATOM     27  C   UNL     1      -2.987  -0.351 -29.147  1.00  0.00     0.157 A 
BRANCH  25  28
ATOM     28  O   UNL     1      -2.545  -0.448 -31.464  1.00  0.00    -0.504 OA
ATOM     29  H   UNL     1      -2.006   0.340 -31.278  1.00  0.00     0.293 HD
ENDBRANCH  25  28
BRANCH  27  30
ATOM     30  O   UNL     1      -1.700   0.050 -28.939  1.00  0.00    -0.504 OA
ATOM     31  H   UNL     1      -1.258  -0.734 -28.555  1.00  0.00     0.293 HD
ENDBRANCH  27  30
ENDBRANCH  21  22
ENDBRANCH  18  20
ENDBRANCH   1  18
TORSDOF 12
ENDMDL
MODEL 9
REMARK VINA RESULT:      -7.6      2.089      6.893
REMARK SMILES O=C(/C=C/c1ccc(O)c(O)c1)O[C@H](Cc1ccc(O)c(O)c1)C(=O)O
REMARK SMILES IDX 13 1 14 2 15 3 16 4 17 5 18 6 19 7 23 8 21 9 20 10 22 12
REMARK SMILES IDX 24 14 25 15 26 16 2 18 1 19 3 20 4 21 5 22 12 23 6 24 10 25
REMARK SMILES IDX 7 26 8 27 11 28 9 30
REMARK H PARENT 20 11 22 13 26 17 11 29 9 31
ROOT
ATOM      1  O   UNL     1      -6.957  -1.861 -27.123  1.00  0.00    -0.447 OA
ENDROOT
BRANCH   1   2
ATOM      2  C   UNL     1      -5.975  -0.878 -26.751  1.00  0.00     0.290 C 
BRANCH   2   3
ATOM      3  C   UNL     1      -4.650  -1.234 -27.447  1.00  0.00     0.093 C 
BRANCH   3   4
ATOM      4  C   UNL     1      -4.466  -0.517 -28.768  1.00  0.00    -0.040 A 
ATOM      5  C   UNL     1      -5.045   0.746 -28.975  1.00  0.00     0.008 A 
ATOM      6  C   UNL     1      -4.871   1.426 -30.186  1.00  0.00     0.050 A 
ATOM      7  C   UNL     1      -4.114   0.838 -31.190  1.00  0.00     0.157 A 
ATOM      8  C   UNL     1      -3.718  -1.102 -29.801  1.00  0.00     0.054 A 
ATOM      9  C   UNL     1      -3.543  -0.416 -30.994  1.00  0.00     0.157 A 
BRANCH   7  10
ATOM     10  O   UNL     1      -3.901   1.454 -32.392  1.00  0.00    -0.504 OA
ATOM     11  H   UNL     1      -3.828   0.765 -33.075  1.00  0.00     0.293 HD
ENDBRANCH   7  10
BRANCH   9  12
ATOM     12  O   UNL     1      -2.797  -0.987 -31.985  1.00  0.00    -0.504 OA
ATOM     13  H   UNL     1      -1.928  -1.159 -31.570  1.00  0.00     0.293 HD
ENDBRANCH   9  12
ENDBRANCH   3   4
ENDBRANCH   2   3
BRANCH   2  14
ATOM     14  C   UNL     1      -5.762  -0.829 -25.231  1.00  0.00     0.345 C 
ATOM     15  O   UNL     1      -5.968  -1.764 -24.471  1.00  0.00    -0.248 OA
BRANCH  14  16
ATOM     16  O   UNL     1      -5.303   0.363 -24.777  1.00  0.00    -0.478 OA
ATOM     17  H   UNL     1      -5.342   1.092 -25.444  1.00  0.00     0.296 HD
ENDBRANCH  14  16
ENDBRANCH   2  14
ENDBRANCH   1   2
BRANCH   1  18
ATOM     18  C   UNL     1      -8.240  -1.508 -26.883  1.00  0.00     0.331 C 
ATOM     19  O   UNL     1      -8.908  -1.900 -25.939  1.00  0.00    -0.247 OA
BRANCH  18  20
ATOM     20  C   UNL     1      -8.705  -0.632 -27.971  1.00  0.00     0.094 C 
ATOM     21  C   UNL     1      -8.624  -1.047 -29.243  1.00  0.00     0.016 C 
BRANCH  21  22
ATOM     22  C   UNL     1      -9.044  -0.229 -30.387  1.00  0.00    -0.021 A 
ATOM     23  C   UNL     1     -10.079  -0.637 -31.245  1.00  0.00     0.058 A 
ATOM     24  C   UNL     1      -8.438   1.022 -30.587  1.00  0.00     0.012 A 
ATOM     25  C   UNL     1     -10.472   0.193 -32.290  1.00  0.00     0.157 A 
ATOM     26  C   UNL     1      -8.837   1.847 -31.642  1.00  0.00     0.051 A 
ATOM     27  C   UNL     1      -9.851   1.423 -32.486  1.00  0.00     0.157 A 
BRANCH  25  28
ATOM     28  O   UNL     1     -11.476  -0.155 -33.151  1.00  0.00    -0.504 OA
ATOM     29  H   UNL     1     -12.086  -0.753 -32.686  1.00  0.00     0.293 HD
ENDBRANCH  25  28
BRANCH  27  30
ATOM     30  O   UNL     1     -10.247   2.232 -33.512  1.00  0.00    -0.504 OA
ATOM     31  H   UNL     1     -10.793   2.921 -33.084  1.00  0.00     0.293 HD
ENDBRANCH  27  30
ENDBRANCH  21  22
ENDBRANCH  18  20
ENDBRANCH   1  18
TORSDOF 12
ENDMDL
MODEL 10
REMARK VINA RESULT:      -7.5      2.120      6.112
REMARK SMILES O=C(/C=C/c1ccc(O)c(O)c1)O[C@H](Cc1ccc(O)c(O)c1)C(=O)O
REMARK SMILES IDX 13 1 14 2 15 3 16 4 17 5 18 6 19 7 23 8 21 9 20 10 22 12
REMARK SMILES IDX 24 14 25 15 26 16 2 18 1 19 3 20 4 21 5 22 12 23 6 24 10 25
REMARK SMILES IDX 7 26 8 27 11 28 9 30
REMARK H PARENT 20 11 22 13 26 17 11 29 9 31
ROOT
ATOM      1  O   UNL     1      -3.822   1.764 -30.029  1.00  0.00    -0.447 OA
ENDROOT
BRANCH   1   2
ATOM      2  C   UNL     1      -3.936   0.366 -29.709  1.00  0.00     0.290 C 
BRANCH   2   3
ATOM      3  C   UNL     1      -3.321   0.140 -28.318  1.00  0.00     0.093 C 
BRANCH   3   4
ATOM      4  C   UNL     1      -4.347  -0.255 -27.276  1.00  0.00    -0.040 A 
ATOM      5  C   UNL     1      -4.183   0.135 -25.936  1.00  0.00     0.008 A 
ATOM      6  C   UNL     1      -5.129  -0.212 -24.966  1.00  0.00     0.050 A 
ATOM      7  C   UNL     1      -6.243  -0.950 -25.341  1.00  0.00     0.157 A 
ATOM      8  C   UNL     1      -5.471  -1.015 -27.632  1.00  0.00     0.054 A 
ATOM      9  C   UNL     1      -6.409  -1.346 -26.665  1.00  0.00     0.157 A 
BRANCH   7  10
ATOM     10  O   UNL     1      -7.208  -1.314 -24.442  1.00  0.00    -0.504 OA
ATOM     11  H   UNL     1      -7.515  -0.510 -23.987  1.00  0.00     0.293 HD
ENDBRANCH   7  10
BRANCH   9  12
ATOM     12  O   UNL     1      -7.509  -2.070 -27.027  1.00  0.00    -0.504 OA
ATOM     13  H   UNL     1      -7.855  -2.428 -26.186  1.00  0.00     0.293 HD
ENDBRANCH   9  12
ENDBRANCH   3   4
ENDBRANCH   2   3
BRANCH   2  14
ATOM     14  C   UNL     1      -3.217  -0.516 -30.740  1.00  0.00     0.345 C 
ATOM     15  O   UNL     1      -3.419  -1.713 -30.890  1.00  0.00    -0.248 OA
BRANCH  14  16
ATOM     16  O   UNL     1      -2.319   0.150 -31.506  1.00  0.00    -0.478 OA
ATOM     17  H   UNL     1      -1.678   0.700 -30.992  1.00  0.00     0.296 HD
ENDBRANCH  14  16
ENDBRANCH   2  14
ENDBRANCH   1   2
BRANCH   1  18
ATOM     18  C   UNL     1      -4.867   2.528 -29.637  1.00  0.00     0.331 C 
ATOM     19  O   UNL     1      -4.774   3.560 -28.991  1.00  0.00    -0.247 OA
BRANCH  18  20
ATOM     20  C   UNL     1      -6.118   1.881 -30.064  1.00  0.00     0.094 C 
ATOM     21  C   UNL     1      -6.503   1.953 -31.346  1.00  0.00     0.016 C 
BRANCH  21  22
ATOM     22  C   UNL     1      -7.745   1.356 -31.850  1.00  0.00    -0.021 A 
ATOM     23  C   UNL     1      -8.799   1.010 -30.989  1.00  0.00     0.058 A 
ATOM     24  C   UNL     1      -7.906   1.190 -33.236  1.00  0.00     0.012 A 
ATOM     25  C   UNL     1      -9.975   0.487 -31.517  1.00  0.00     0.157 A 
ATOM     26  C   UNL     1      -9.090   0.660 -33.757  1.00  0.00     0.051 A 
ATOM     27  C   UNL     1     -10.114   0.312 -32.891  1.00  0.00     0.157 A 
BRANCH  25  28
ATOM     28  O   UNL     1     -11.032   0.136 -30.724  1.00  0.00    -0.504 OA
ATOM     29  H   UNL     1     -11.850   0.454 -31.144  1.00  0.00     0.293 HD
ENDBRANCH  25  28
BRANCH  27  30
ATOM     30  O   UNL     1     -11.273  -0.198 -33.401  1.00  0.00    -0.504 OA
ATOM     31  H   UNL     1     -11.681  -0.676 -32.652  1.00  0.00     0.293 HD
ENDBRANCH  27  30
ENDBRANCH  21  22
ENDBRANCH  18  20
ENDBRANCH   1  18
TORSDOF 12
ENDMDL
