MODEL 1
REMARK VINA RESULT:      -8.4      0.000      0.000
REMARK SMILES O=C(/C=C/c1ccc(O)c(O)c1)O[C@@H]1C[C@](O)(C(=O)O)C[C@@H](O)[C@H]1O
REMARK SMILES IDX 2 1 1 2 13 3 14 4 21 5 22 6 16 7 24 8 15 9 23 10 17 12 18 14
REMARK SMILES IDX 19 15 20 16 25 18 3 20 4 21 5 22 12 23 6 24 10 25 7 26 8 27
REMARK SMILES IDX 11 28 9 30
REMARK H PARENT 23 11 17 13 20 17 25 19 11 29 9 31
ROOT
ATOM      1  C   UNL     1      -4.979   3.057 -30.373  1.00  0.00     0.331 C 
ATOM      2  O   UNL     1      -4.807   4.260 -30.511  1.00  0.00    -0.247 OA
ENDROOT
BRANCH   1   3
ATOM      3  O   UNL     1      -4.042   2.163 -29.980  1.00  0.00    -0.456 OA
BRANCH   3   4
ATOM      4  C   UNL     1      -4.535   0.854 -29.625  1.00  0.00     0.211 C 
ATOM      5  C   UNL     1      -4.051  -1.721 -28.216  1.00  0.00     0.082 C 
ATOM      6  C   UNL     1      -3.930  -1.620 -29.737  1.00  0.00     0.150 C 
ATOM      7  C   UNL     1      -5.006  -0.663 -27.648  1.00  0.00     0.167 C 
ATOM      8  C   UNL     1      -3.572  -0.199 -30.204  1.00  0.00     0.184 C 
ATOM      9  C   UNL     1      -4.609   0.743 -28.099  1.00  0.00     0.095 C 
BRANCH   6  10
ATOM     10  O   UNL     1      -5.155  -2.017 -30.375  1.00  0.00    -0.390 OA
ATOM     11  H   UNL     1      -5.375  -1.354 -31.061  1.00  0.00     0.211 HD
ENDBRANCH   6  10
BRANCH   7  12
ATOM     12  O   UNL     1      -6.339  -0.962 -28.120  1.00  0.00    -0.378 OA
ATOM     13  H   UNL     1      -6.959  -0.769 -27.385  1.00  0.00     0.212 HD
ENDBRANCH   7  12
BRANCH   7  14
ATOM     14  C   UNL     1      -5.000  -0.768 -26.115  1.00  0.00     0.335 C 
ATOM     15  O   UNL     1      -5.454  -1.700 -25.473  1.00  0.00    -0.249 OA
BRANCH  14  16
ATOM     16  O   UNL     1      -4.440   0.327 -25.541  1.00  0.00    -0.479 OA
ATOM     17  H   UNL     1      -3.464   0.302 -25.664  1.00  0.00     0.296 HD
ENDBRANCH  14  16
ENDBRANCH   7  14
BRANCH   8  18
ATOM     18  O   UNL     1      -3.624  -0.162 -31.637  1.00  0.00    -0.387 OA
ATOM     19  H   UNL     1      -2.696  -0.063 -31.936  1.00  0.00     0.211 HD
ENDBRANCH   8  18
ENDBRANCH   3   4
ENDBRANCH   1   3
BRANCH   1  20
ATOM     20  C   UNL     1      -6.272   2.408 -30.674  1.00  0.00     0.094 C 
ATOM     21  C   UNL     1      -6.640   1.993 -31.897  1.00  0.00     0.016 C 
BRANCH  21  22
ATOM     22  C   UNL     1      -7.926   1.339 -32.173  1.00  0.00    -0.021 A 
ATOM     23  C   UNL     1      -8.862   1.086 -31.157  1.00  0.00     0.058 A 
ATOM     24  C   UNL     1      -8.245   1.012 -33.500  1.00  0.00     0.012 A 
ATOM     25  C   UNL     1     -10.080   0.494 -31.480  1.00  0.00     0.157 A 
ATOM     26  C   UNL     1      -9.469   0.416 -33.814  1.00  0.00     0.051 A 
ATOM     27  C   UNL     1     -10.376   0.160 -32.797  1.00  0.00     0.157 A 
BRANCH  25  28
ATOM     28  O   UNL     1     -11.027   0.225 -30.530  1.00  0.00    -0.504 OA
ATOM     29  H   UNL     1     -10.649   0.423 -29.656  1.00  0.00     0.293 HD
ENDBRANCH  25  28
BRANCH  27  30
ATOM     30  O   UNL     1     -11.573  -0.419 -33.103  1.00  0.00    -0.504 OA
ATOM     31  H   UNL     1     -11.947   0.148 -33.807  1.00  0.00     0.293 HD
ENDBRANCH  27  30
ENDBRANCH  21  22
ENDBRANCH   1  20
TORSDOF 11
ENDMDL
MODEL 2
REMARK VINA RESULT:      -8.1      1.727      4.184
REMARK SMILES O=C(/C=C/c1ccc(O)c(O)c1)O[C@@H]1C[C@](O)(C(=O)O)C[C@@H](O)[C@H]1O
REMARK SMILES IDX 2 1 1 2 13 3 14 4 21 5 22 6 16 7 24 8 15 9 23 10 17 12 18 14
REMARK SMILES IDX 19 15 20 16 25 18 3 20 4 21 5 22 12 23 6 24 10 25 7 26 8 27
REMARK SMILES IDX 11 28 9 30
REMARK H PARENT 23 11 17 13 20 17 25 19 11 29 9 31
ROOT
ATOM      1  C   UNL     1      -7.003  -1.169 -27.112  1.00  0.00     0.331 C 
ATOM      2  O   UNL     1      -7.505  -1.382 -26.016  1.00  0.00    -0.247 OA
ENDROOT
BRANCH   1   3
ATOM      3  O   UNL     1      -5.745  -1.501 -27.484  1.00  0.00    -0.456 OA
BRANCH   3   4
ATOM      4  C   UNL     1      -4.932  -0.417 -27.981  1.00  0.00     0.211 C 
ATOM      5  C   UNL     1      -2.226   0.553 -28.747  1.00  0.00     0.082 C 
ATOM      6  C   UNL     1      -2.865   0.966 -27.422  1.00  0.00     0.150 C 
ATOM      7  C   UNL     1      -3.281   0.200 -29.804  1.00  0.00     0.167 C 
ATOM      8  C   UNL     1      -3.881  -0.070 -26.911  1.00  0.00     0.184 C 
ATOM      9  C   UNL     1      -4.256  -0.855 -29.285  1.00  0.00     0.095 C 
BRANCH   6  10
ATOM     10  O   UNL     1      -3.529   2.234 -27.547  1.00  0.00    -0.390 OA
ATOM     11  H   UNL     1      -4.364   2.099 -28.041  1.00  0.00     0.211 HD
ENDBRANCH   6  10
BRANCH   7  12
ATOM     12  O   UNL     1      -4.006   1.406 -30.133  1.00  0.00    -0.378 OA
ATOM     13  H   UNL     1      -3.463   2.166 -29.831  1.00  0.00     0.212 HD
ENDBRANCH   7  12
BRANCH   7  14
ATOM     14  C   UNL     1      -2.563  -0.294 -31.069  1.00  0.00     0.335 C 
ATOM     15  O   UNL     1      -3.039  -1.053 -31.896  1.00  0.00    -0.249 OA
BRANCH  14  16
ATOM     16  O   UNL     1      -1.303   0.204 -31.155  1.00  0.00    -0.479 OA
ATOM     17  H   UNL     1      -0.947   0.049 -32.060  1.00  0.00     0.296 HD
ENDBRANCH  14  16
ENDBRANCH   7  14
BRANCH   8  18
ATOM     18  O   UNL     1      -4.535   0.463 -25.750  1.00  0.00    -0.387 OA
ATOM     19  H   UNL     1      -5.417   0.037 -25.722  1.00  0.00     0.211 HD
ENDBRANCH   8  18
ENDBRANCH   3   4
ENDBRANCH   1   3
BRANCH   1  20
ATOM     20  C   UNL     1      -7.728  -0.456 -28.183  1.00  0.00     0.094 C 
ATOM     21  C   UNL     1      -8.114  -1.022 -29.337  1.00  0.00     0.016 C 
BRANCH  21  22
ATOM     22  C   UNL     1      -8.845  -0.298 -30.385  1.00  0.00    -0.021 A 
ATOM     23  C   UNL     1      -9.967  -0.851 -31.024  1.00  0.00     0.058 A 
ATOM     24  C   UNL     1      -8.440   1.005 -30.712  1.00  0.00     0.012 A 
ATOM     25  C   UNL     1     -10.643  -0.107 -31.987  1.00  0.00     0.157 A 
ATOM     26  C   UNL     1      -9.124   1.744 -31.683  1.00  0.00     0.051 A 
ATOM     27  C   UNL     1     -10.220   1.177 -32.313  1.00  0.00     0.157 A 
BRANCH  25  28
ATOM     28  O   UNL     1     -11.741  -0.598 -32.640  1.00  0.00    -0.504 OA
ATOM     29  H   UNL     1     -12.425  -0.799 -31.979  1.00  0.00     0.293 HD
ENDBRANCH  25  28
BRANCH  27  30
ATOM     30  O   UNL     1     -10.891   1.898 -33.258  1.00  0.00    -0.504 OA
ATOM     31  H   UNL     1     -10.309   2.662 -33.443  1.00  0.00     0.293 HD
ENDBRANCH  27  30
ENDBRANCH  21  22
ENDBRANCH   1  20
TORSDOF 11
ENDMDL
MODEL 3
REMARK VINA RESULT:      -7.9      4.450      6.975
REMARK SMILES O=C(/C=C/c1ccc(O)c(O)c1)O[C@@H]1C[C@](O)(C(=O)O)C[C@@H](O)[C@H]1O
REMARK SMILES IDX 2 1 1 2 13 3 14 4 21 5 22 6 16 7 24 8 15 9 23 10 17 12 18 14
REMARK SMILES IDX 19 15 20 16 25 18 3 20 4 21 5 22 12 23 6 24 10 25 7 26 8 27
REMARK SMILES IDX 11 28 9 30
REMARK H PARENT 23 11 17 13 20 17 25 19 11 29 9 31
ROOT
ATOM      1  C   UNL     1      -7.138  -2.327 -29.219  1.00  0.00     0.331 C 
ATOM      2  O   UNL     1      -6.237  -1.937 -28.489  1.00  0.00    -0.247 OA
ENDROOT
BRANCH   1   3
ATOM      3  O   UNL     1      -7.256  -2.061 -30.541  1.00  0.00    -0.456 OA
BRANCH   3   4
ATOM      4  C   UNL     1      -7.551  -0.689 -30.879  1.00  0.00     0.211 C 
ATOM      5  C   UNL     1      -7.913   1.356 -33.009  1.00  0.00     0.082 C 
ATOM      6  C   UNL     1      -6.632   1.304 -32.177  1.00  0.00     0.150 C 
ATOM      7  C   UNL     1      -9.110   0.766 -32.252  1.00  0.00     0.167 C 
ATOM      8  C   UNL     1      -6.342  -0.106 -31.633  1.00  0.00     0.184 C 
ATOM      9  C   UNL     1      -8.809  -0.647 -31.752  1.00  0.00     0.095 C 
BRANCH   6  10
ATOM     10  O   UNL     1      -6.704   2.216 -31.069  1.00  0.00    -0.390 OA
ATOM     11  H   UNL     1      -7.585   2.643 -31.076  1.00  0.00     0.211 HD
ENDBRANCH   6  10
BRANCH   7  12
ATOM     12  O   UNL     1      -9.395   1.624 -31.125  1.00  0.00    -0.378 OA
ATOM     13  H   UNL     1      -8.540   1.831 -30.691  1.00  0.00     0.212 HD
ENDBRANCH   7  12
BRANCH   7  14
ATOM     14  C   UNL     1     -10.331   0.768 -33.185  1.00  0.00     0.335 C 
ATOM     15  O   UNL     1     -10.638  -0.137 -33.943  1.00  0.00    -0.249 OA
BRANCH  14  16
ATOM     16  O   UNL     1     -11.034   1.924 -33.084  1.00  0.00    -0.479 OA
ATOM     17  H   UNL     1     -10.619   2.614 -33.650  1.00  0.00     0.296 HD
ENDBRANCH  14  16
ENDBRANCH   7  14
BRANCH   8  18
ATOM     18  O   UNL     1      -5.213  -0.034 -30.750  1.00  0.00    -0.387 OA
ATOM     19  H   UNL     1      -4.831  -0.935 -30.732  1.00  0.00     0.211 HD
ENDBRANCH   8  18
ENDBRANCH   3   4
ENDBRANCH   1   3
BRANCH   1  20
ATOM     20  C   UNL     1      -8.269  -3.130 -28.711  1.00  0.00     0.094 C 
ATOM     21  C   UNL     1      -9.252  -2.643 -27.937  1.00  0.00     0.016 C 
BRANCH  21  22
ATOM     22  C   UNL     1     -10.374  -3.456 -27.453  1.00  0.00    -0.021 A 
ATOM     23  C   UNL     1     -10.546  -4.793 -27.847  1.00  0.00     0.058 A 
ATOM     24  C   UNL     1     -11.264  -2.893 -26.524  1.00  0.00     0.012 A 
ATOM     25  C   UNL     1     -11.609  -5.529 -27.331  1.00  0.00     0.157 A 
ATOM     26  C   UNL     1     -12.330  -3.639 -26.013  1.00  0.00     0.051 A 
ATOM     27  C   UNL     1     -12.493  -4.952 -26.425  1.00  0.00     0.157 A 
BRANCH  25  28
ATOM     28  O   UNL     1     -11.823  -6.834 -27.683  1.00  0.00    -0.504 OA
ATOM     29  H   UNL     1     -12.677  -6.890 -28.145  1.00  0.00     0.293 HD
ENDBRANCH  25  28
BRANCH  27  30
ATOM     30  O   UNL     1     -13.531  -5.683 -25.924  1.00  0.00    -0.504 OA
ATOM     31  H   UNL     1     -13.106  -6.458 -25.505  1.00  0.00     0.293 HD
ENDBRANCH  27  30
ENDBRANCH  21  22
ENDBRANCH   1  20
TORSDOF 11
ENDMDL
MODEL 4
REMARK VINA RESULT:      -7.9      5.538      7.267
REMARK SMILES O=C(/C=C/c1ccc(O)c(O)c1)O[C@@H]1C[C@](O)(C(=O)O)C[C@@H](O)[C@H]1O
REMARK SMILES IDX 2 1 1 2 13 3 14 4 21 5 22 6 16 7 24 8 15 9 23 10 17 12 18 14
REMARK SMILES IDX 19 15 20 16 25 18 3 20 4 21 5 22 12 23 6 24 10 25 7 26 8 27
REMARK SMILES IDX 11 28 9 30
REMARK H PARENT 23 11 17 13 20 17 25 19 11 29 9 31
ROOT
ATOM      1  C   UNL     1      -9.765  -4.937 -29.729  1.00  0.00     0.331 C 
ATOM      2  O   UNL     1     -10.297  -5.841 -30.359  1.00  0.00    -0.247 OA
ENDROOT
BRANCH   1   3
ATOM      3  O   UNL     1      -9.547  -4.926 -28.393  1.00  0.00    -0.456 OA
BRANCH   3   4
ATOM      4  C   UNL     1     -10.716  -4.732 -27.570  1.00  0.00     0.211 C 
ATOM      5  C   UNL     1     -11.896  -4.710 -24.839  1.00  0.00     0.082 C 
ATOM      6  C   UNL     1     -12.137  -5.880 -25.792  1.00  0.00     0.150 C 
ATOM      7  C   UNL     1     -11.603  -3.408 -25.597  1.00  0.00     0.167 C 
ATOM      8  C   UNL     1     -11.003  -6.045 -26.818  1.00  0.00     0.184 C 
ATOM      9  C   UNL     1     -10.452  -3.588 -26.585  1.00  0.00     0.095 C 
BRANCH   6  10
ATOM     10  O   UNL     1     -13.376  -5.717 -26.500  1.00  0.00    -0.390 OA
ATOM     11  H   UNL     1     -13.253  -5.026 -27.183  1.00  0.00     0.211 HD
ENDBRANCH   6  10
BRANCH   7  12
ATOM     12  O   UNL     1     -12.799  -3.028 -26.314  1.00  0.00    -0.378 OA
ATOM     13  H   UNL     1     -13.202  -2.275 -25.833  1.00  0.00     0.212 HD
ENDBRANCH   7  12
BRANCH   7  14
ATOM     14  C   UNL     1     -11.281  -2.306 -24.575  1.00  0.00     0.335 C 
ATOM     15  O   UNL     1     -10.964  -1.162 -24.853  1.00  0.00    -0.249 OA
BRANCH  14  16
ATOM     16  O   UNL     1     -11.368  -2.765 -23.301  1.00  0.00    -0.479 OA
ATOM     17  H   UNL     1     -10.502  -2.651 -22.848  1.00  0.00     0.296 HD
ENDBRANCH  14  16
ENDBRANCH   7  14
BRANCH   8  18
ATOM     18  O   UNL     1     -11.378  -7.063 -27.756  1.00  0.00    -0.387 OA
ATOM     19  H   UNL     1     -11.015  -6.778 -28.620  1.00  0.00     0.211 HD
ENDBRANCH   8  18
ENDBRANCH   3   4
ENDBRANCH   1   3
BRANCH   1  20
ATOM     20  C   UNL     1      -9.320  -3.685 -30.374  1.00  0.00     0.094 C 
ATOM     21  C   UNL     1     -10.152  -2.723 -30.805  1.00  0.00     0.016 C 
BRANCH  21  22
ATOM     22  C   UNL     1      -9.688  -1.480 -31.433  1.00  0.00    -0.021 A 
ATOM     23  C   UNL     1     -10.584  -0.489 -31.868  1.00  0.00     0.058 A 
ATOM     24  C   UNL     1      -8.307  -1.256 -31.547  1.00  0.00     0.012 A 
ATOM     25  C   UNL     1     -10.089   0.685 -32.427  1.00  0.00     0.157 A 
ATOM     26  C   UNL     1      -7.819  -0.073 -32.112  1.00  0.00     0.051 A 
ATOM     27  C   UNL     1      -8.718   0.887 -32.549  1.00  0.00     0.157 A 
BRANCH  25  28
ATOM     28  O   UNL     1     -10.918   1.681 -32.867  1.00  0.00    -0.504 OA
ATOM     29  H   UNL     1     -11.687   1.724 -32.274  1.00  0.00     0.293 HD
ENDBRANCH  25  28
BRANCH  27  30
ATOM     30  O   UNL     1      -8.243   2.043 -33.097  1.00  0.00    -0.504 OA
ATOM     31  H   UNL     1      -7.504   1.757 -33.670  1.00  0.00     0.293 HD
ENDBRANCH  27  30
ENDBRANCH  21  22
ENDBRANCH   1  20
TORSDOF 11
ENDMDL
MODEL 5
REMARK VINA RESULT:      -7.8      3.872      4.630
REMARK SMILES O=C(/C=C/c1ccc(O)c(O)c1)O[C@@H]1C[C@](O)(C(=O)O)C[C@@H](O)[C@H]1O
REMARK SMILES IDX 2 1 1 2 13 3 14 4 21 5 22 6 16 7 24 8 15 9 23 10 17 12 18 14
REMARK SMILES IDX 19 15 20 16 25 18 3 20 4 21 5 22 12 23 6 24 10 25 7 26 8 27
REMARK SMILES IDX 11 28 9 30
REMARK H PARENT 23 11 17 13 20 17 25 19 11 29 9 31
ROOT
ATOM      1  C   UNL     1      -7.785  -0.635 -30.897  1.00  0.00     0.331 C 
ATOM      2  O   UNL     1      -7.862  -0.550 -32.115  1.00  0.00    -0.247 OA
ENDROOT
BRANCH   1   3
ATOM      3  O   UNL     1      -6.980   0.108 -30.101  1.00  0.00    -0.456 OA
BRANCH   3   4
ATOM      4  C   UNL     1      -5.984  -0.627 -29.359  1.00  0.00     0.211 C 
ATOM      5  C   UNL     1      -3.767  -0.561 -27.377  1.00  0.00     0.082 C 
ATOM      6  C   UNL     1      -3.482  -0.692 -28.872  1.00  0.00     0.150 C 
ATOM      7  C   UNL     1      -5.155  -1.102 -27.011  1.00  0.00     0.167 C 
ATOM      8  C   UNL     1      -4.596  -0.078 -29.738  1.00  0.00     0.184 C 
ATOM      9  C   UNL     1      -6.247  -0.453 -27.859  1.00  0.00     0.095 C 
BRANCH   6  10
ATOM     10  O   UNL     1      -3.321  -2.070 -29.244  1.00  0.00    -0.390 OA
ATOM     11  H   UNL     1      -3.210  -2.117 -30.216  1.00  0.00     0.211 HD
ENDBRANCH   6  10
BRANCH   7  12
ATOM     12  O   UNL     1      -5.153  -2.530 -27.237  1.00  0.00    -0.378 OA
ATOM     13  H   UNL     1      -5.412  -2.678 -28.172  1.00  0.00     0.212 HD
ENDBRANCH   7  12
BRANCH   7  14
ATOM     14  C   UNL     1      -5.403  -0.850 -25.515  1.00  0.00     0.335 C 
ATOM     15  O   UNL     1      -6.082  -1.554 -24.787  1.00  0.00    -0.249 OA
BRANCH  14  16
ATOM     16  O   UNL     1      -4.785   0.281 -25.090  1.00  0.00    -0.479 OA
ATOM     17  H   UNL     1      -4.885   0.987 -25.769  1.00  0.00     0.296 HD
ENDBRANCH  14  16
ENDBRANCH   7  14
BRANCH   8  18
ATOM     18  O   UNL     1      -4.322  -0.373 -31.115  1.00  0.00    -0.387 OA
ATOM     19  H   UNL     1      -3.629  -1.066 -31.107  1.00  0.00     0.211 HD
ENDBRANCH   8  18
ENDBRANCH   3   4
ENDBRANCH   1   3
BRANCH   1  20
ATOM     20  C   UNL     1      -8.563  -1.627 -30.127  1.00  0.00     0.094 C 
ATOM     21  C   UNL     1      -8.690  -2.918 -30.474  1.00  0.00     0.016 C 
BRANCH  21  22
ATOM     22  C   UNL     1      -9.459  -3.891 -29.688  1.00  0.00    -0.021 A 
ATOM     23  C   UNL     1      -9.433  -3.897 -28.284  1.00  0.00     0.058 A 
ATOM     24  C   UNL     1     -10.285  -4.802 -30.365  1.00  0.00     0.012 A 
ATOM     25  C   UNL     1     -10.207  -4.821 -27.588  1.00  0.00     0.157 A 
ATOM     26  C   UNL     1     -11.058  -5.728 -29.657  1.00  0.00     0.051 A 
ATOM     27  C   UNL     1     -11.009  -5.729 -28.272  1.00  0.00     0.157 A 
BRANCH  25  28
ATOM     28  O   UNL     1     -10.218  -4.871 -26.220  1.00  0.00    -0.504 OA
ATOM     29  H   UNL     1     -10.392  -3.976 -25.883  1.00  0.00     0.293 HD
ENDBRANCH  25  28
BRANCH  27  30
ATOM     30  O   UNL     1     -11.765  -6.630 -27.580  1.00  0.00    -0.504 OA
ATOM     31  H   UNL     1     -11.933  -6.198 -26.718  1.00  0.00     0.293 HD
ENDBRANCH  27  30
ENDBRANCH  21  22
ENDBRANCH   1  20
TORSDOF 11
ENDMDL
MODEL 6
REMARK VINA RESULT:      -7.8      4.738      7.779
REMARK SMILES O=C(/C=C/c1ccc(O)c(O)c1)O[C@@H]1C[C@](O)(C(=O)O)C[C@@H](O)[C@H]1O
REMARK SMILES IDX 2 1 1 2 13 3 14 4 21 5 22 6 16 7 24 8 15 9 23 10 17 12 18 14
REMARK SMILES IDX 19 15 20 16 25 18 3 20 4 21 5 22 12 23 6 24 10 25 7 26 8 27
REMARK SMILES IDX 11 28 9 30
REMARK H PARENT 23 11 17 13 20 17 25 19 11 29 9 31
ROOT
ATOM      1  C   UNL     1      -8.075  -3.410 -29.618  1.00  0.00     0.331 C 
ATOM      2  O   UNL     1      -7.962  -4.343 -30.401  1.00  0.00    -0.247 OA
ENDROOT
BRANCH   1   3
ATOM      3  O   UNL     1      -9.242  -2.899 -29.160  1.00  0.00    -0.456 OA
BRANCH   3   4
ATOM      4  C   UNL     1      -9.564  -3.208 -27.787  1.00  0.00     0.211 C 
ATOM      5  C   UNL     1     -11.632  -3.322 -25.653  1.00  0.00     0.082 C 
ATOM      6  C   UNL     1     -10.598  -2.197 -25.688  1.00  0.00     0.150 C 
ATOM      7  C   UNL     1     -11.116  -4.593 -26.337  1.00  0.00     0.167 C 
ATOM      8  C   UNL     1     -10.076  -1.924 -27.109  1.00  0.00     0.184 C 
ATOM      9  C   UNL     1     -10.635  -4.303 -27.759  1.00  0.00     0.095 C 
BRANCH   6  10
ATOM     10  O   UNL     1      -9.480  -2.502 -24.840  1.00  0.00    -0.390 OA
ATOM     11  H   UNL     1      -8.912  -3.155 -25.301  1.00  0.00     0.211 HD
ENDBRANCH   6  10
BRANCH   7  12
ATOM     12  O   UNL     1     -10.017  -5.110 -25.553  1.00  0.00    -0.378 OA
ATOM     13  H   UNL     1     -10.360  -5.292 -24.652  1.00  0.00     0.212 HD
ENDBRANCH   7  12
BRANCH   7  14
ATOM     14  C   UNL     1     -12.241  -5.641 -26.343  1.00  0.00     0.335 C 
ATOM     15  O   UNL     1     -13.010  -5.850 -25.421  1.00  0.00    -0.249 OA
BRANCH  14  16
ATOM     16  O   UNL     1     -12.269  -6.336 -27.508  1.00  0.00    -0.479 OA
ATOM     17  H   UNL     1     -12.640  -5.769 -28.223  1.00  0.00     0.296 HD
ENDBRANCH  14  16
ENDBRANCH   7  14
BRANCH   8  18
ATOM     18  O   UNL     1      -9.013  -0.964 -27.031  1.00  0.00    -0.387 OA
ATOM     19  H   UNL     1      -8.588  -0.964 -27.913  1.00  0.00     0.211 HD
ENDBRANCH   8  18
ENDBRANCH   3   4
ENDBRANCH   1   3
BRANCH   1  20
ATOM     20  C   UNL     1      -6.904  -2.677 -29.095  1.00  0.00     0.094 C 
ATOM     21  C   UNL     1      -5.971  -2.100 -29.868  1.00  0.00     0.016 C 
BRANCH  21  22
ATOM     22  C   UNL     1      -4.820  -1.365 -29.327  1.00  0.00    -0.021 A 
ATOM     23  C   UNL     1      -3.777  -0.910 -30.151  1.00  0.00     0.058 A 
ATOM     24  C   UNL     1      -4.796  -1.062 -27.957  1.00  0.00     0.012 A 
ATOM     25  C   UNL     1      -2.726  -0.188 -29.591  1.00  0.00     0.157 A 
ATOM     26  C   UNL     1      -3.735  -0.339 -27.404  1.00  0.00     0.051 A 
ATOM     27  C   UNL     1      -2.707   0.090 -28.229  1.00  0.00     0.157 A 
BRANCH  25  28
ATOM     28  O   UNL     1      -1.685   0.277 -30.348  1.00  0.00    -0.504 OA
ATOM     29  H   UNL     1      -1.198  -0.487 -30.701  1.00  0.00     0.293 HD
ENDBRANCH  25  28
BRANCH  27  30
ATOM     30  O   UNL     1      -1.673   0.799 -27.690  1.00  0.00    -0.504 OA
ATOM     31  H   UNL     1      -2.074   1.292 -26.947  1.00  0.00     0.293 HD
ENDBRANCH  27  30
ENDBRANCH  21  22
ENDBRANCH   1  20
TORSDOF 11
ENDMDL
MODEL 7
REMARK VINA RESULT:      -7.7      3.651      4.414
REMARK SMILES O=C(/C=C/c1ccc(O)c(O)c1)O[C@@H]1C[C@](O)(C(=O)O)C[C@@H](O)[C@H]1O
REMARK SMILES IDX 2 1 1 2 13 3 14 4 21 5 22 6 16 7 24 8 15 9 23 10 17 12 18 14
REMARK SMILES IDX 19 15 20 16 25 18 3 20 4 21 5 22 12 23 6 24 10 25 7 26 8 27
REMARK SMILES IDX 11 28 9 30
REMARK H PARENT 23 11 17 13 20 17 25 19 11 29 9 31
ROOT
ATOM      1  C   UNL     1      -7.343  -0.198 -30.956  1.00  0.00     0.331 C 
ATOM      2  O   UNL     1      -7.049  -0.161 -32.143  1.00  0.00    -0.247 OA
ENDROOT
BRANCH   1   3
ATOM      3  O   UNL     1      -6.822   0.591 -29.987  1.00  0.00    -0.456 OA
BRANCH   3   4
ATOM      4  C   UNL     1      -5.655   0.070 -29.316  1.00  0.00     0.211 C 
ATOM      5  C   UNL     1      -3.629   0.407 -27.164  1.00  0.00     0.082 C 
ATOM      6  C   UNL     1      -3.284   0.700 -28.624  1.00  0.00     0.150 C 
ATOM      7  C   UNL     1      -4.768  -0.613 -27.040  1.00  0.00     0.167 C 
ATOM      8  C   UNL     1      -4.518   1.099 -29.450  1.00  0.00     0.184 C 
ATOM      9  C   UNL     1      -5.994  -0.177 -27.842  1.00  0.00     0.095 C 
BRANCH   6  10
ATOM     10  O   UNL     1      -2.668  -0.441 -29.243  1.00  0.00    -0.390 OA
ATOM     11  H   UNL     1      -1.803  -0.164 -29.610  1.00  0.00     0.211 HD
ENDBRANCH   6  10
BRANCH   7  12
ATOM     12  O   UNL     1      -4.291  -1.881 -27.542  1.00  0.00    -0.378 OA
ATOM     13  H   UNL     1      -4.491  -2.559 -26.862  1.00  0.00     0.212 HD
ENDBRANCH   7  12
BRANCH   7  14
ATOM     14  C   UNL     1      -5.118  -0.781 -25.553  1.00  0.00     0.335 C 
ATOM     15  O   UNL     1      -5.706  -1.736 -25.074  1.00  0.00    -0.249 OA
BRANCH  14  16
ATOM     16  O   UNL     1      -4.710   0.285 -24.820  1.00  0.00    -0.479 OA
ATOM     17  H   UNL     1      -5.282   0.378 -24.024  1.00  0.00     0.296 HD
ENDBRANCH  14  16
ENDBRANCH   7  14
BRANCH   8  18
ATOM     18  O   UNL     1      -4.131   1.211 -30.827  1.00  0.00    -0.387 OA
ATOM     19  H   UNL     1      -4.727   0.610 -31.321  1.00  0.00     0.211 HD
ENDBRANCH   8  18
ENDBRANCH   3   4
ENDBRANCH   1   3
BRANCH   1  20
ATOM     20  C   UNL     1      -8.308  -1.176 -30.415  1.00  0.00     0.094 C 
ATOM     21  C   UNL     1      -8.041  -2.481 -30.242  1.00  0.00     0.016 C 
BRANCH  21  22
ATOM     22  C   UNL     1      -9.011  -3.436 -29.691  1.00  0.00    -0.021 A 
ATOM     23  C   UNL     1      -9.777  -4.275 -30.517  1.00  0.00     0.058 A 
ATOM     24  C   UNL     1      -9.130  -3.547 -28.297  1.00  0.00     0.012 A 
ATOM     25  C   UNL     1     -10.658  -5.186 -29.940  1.00  0.00     0.157 A 
ATOM     26  C   UNL     1     -10.019  -4.463 -27.727  1.00  0.00     0.051 A 
ATOM     27  C   UNL     1     -10.777  -5.274 -28.557  1.00  0.00     0.157 A 
BRANCH  25  28
ATOM     28  O   UNL     1     -11.427  -6.026 -30.698  1.00  0.00    -0.504 OA
ATOM     29  H   UNL     1     -10.849  -6.482 -31.332  1.00  0.00     0.293 HD
ENDBRANCH  25  28
BRANCH  27  30
ATOM     30  O   UNL     1     -11.643  -6.171 -28.001  1.00  0.00    -0.504 OA
ATOM     31  H   UNL     1     -11.583  -6.007 -27.039  1.00  0.00     0.293 HD
ENDBRANCH  27  30
ENDBRANCH  21  22
ENDBRANCH   1  20
TORSDOF 11
ENDMDL
MODEL 8
REMARK VINA RESULT:      -7.7      1.990      4.433
REMARK SMILES O=C(/C=C/c1ccc(O)c(O)c1)O[C@@H]1C[C@](O)(C(=O)O)C[C@@H](O)[C@H]1O
REMARK SMILES IDX 2 1 1 2 13 3 14 4 21 5 22 6 16 7 24 8 15 9 23 10 17 12 18 14
REMARK SMILES IDX 19 15 20 16 25 18 3 20 4 21 5 22 12 23 6 24 10 25 7 26 8 27
REMARK SMILES IDX 11 28 9 30
REMARK H PARENT 23 11 17 13 20 17 25 19 11 29 9 31
ROOT
ATOM      1  C   UNL     1      -7.806  -3.079 -28.323  1.00  0.00     0.331 C 
ATOM      2  O   UNL     1      -8.597  -3.913 -27.903  1.00  0.00    -0.247 OA
ENDROOT
BRANCH   1   3
ATOM      3  O   UNL     1      -6.472  -3.068 -28.095  1.00  0.00    -0.456 OA
BRANCH   3   4
ATOM      4  C   UNL     1      -5.843  -1.769 -28.123  1.00  0.00     0.211 C 
ATOM      5  C   UNL     1      -3.325  -0.190 -28.007  1.00  0.00     0.082 C 
ATOM      6  C   UNL     1      -4.258  -0.275 -26.800  1.00  0.00     0.150 C 
ATOM      7  C   UNL     1      -4.079  -0.403 -29.327  1.00  0.00     0.167 C 
ATOM      8  C   UNL     1      -5.094  -1.565 -26.793  1.00  0.00     0.184 C 
ATOM      9  C   UNL     1      -4.874  -1.708 -29.308  1.00  0.00     0.095 C 
BRANCH   6  10
ATOM     10  O   UNL     1      -5.151   0.850 -26.763  1.00  0.00    -0.390 OA
ATOM     11  H   UNL     1      -5.245   1.140 -25.832  1.00  0.00     0.211 HD
ENDBRANCH   6  10
BRANCH   7  12
ATOM     12  O   UNL     1      -4.982   0.710 -29.511  1.00  0.00    -0.378 OA
ATOM     13  H   UNL     1      -4.760   1.383 -28.832  1.00  0.00     0.212 HD
ENDBRANCH   7  12
BRANCH   7  14
ATOM     14  C   UNL     1      -3.063  -0.398 -30.480  1.00  0.00     0.335 C 
ATOM     15  O   UNL     1      -3.198  -0.990 -31.538  1.00  0.00    -0.249 OA
BRANCH  14  16
ATOM     16  O   UNL     1      -1.964   0.338 -30.174  1.00  0.00    -0.479 OA
ATOM     17  H   UNL     1      -1.243   0.136 -30.813  1.00  0.00     0.296 HD
ENDBRANCH  14  16
ENDBRANCH   7  14
BRANCH   8  18
ATOM     18  O   UNL     1      -6.038  -1.494 -25.715  1.00  0.00    -0.387 OA
ATOM     19  H   UNL     1      -5.613  -1.945 -24.957  1.00  0.00     0.211 HD
ENDBRANCH   8  18
ENDBRANCH   3   4
ENDBRANCH   1   3
BRANCH   1  20
ATOM     20  C   UNL     1      -8.241  -1.918 -29.126  1.00  0.00     0.094 C 
ATOM     21  C   UNL     1      -8.390  -1.937 -30.460  1.00  0.00     0.016 C 
BRANCH  21  22
ATOM     22  C   UNL     1      -8.836  -0.774 -31.238  1.00  0.00    -0.021 A 
ATOM     23  C   UNL     1      -9.666  -0.908 -32.363  1.00  0.00     0.058 A 
ATOM     24  C   UNL     1      -8.464   0.509 -30.806  1.00  0.00     0.012 A 
ATOM     25  C   UNL     1     -10.086   0.231 -33.044  1.00  0.00     0.157 A 
ATOM     26  C   UNL     1      -8.889   1.646 -31.498  1.00  0.00     0.051 A 
ATOM     27  C   UNL     1      -9.696   1.495 -32.615  1.00  0.00     0.157 A 
BRANCH  25  28
ATOM     28  O   UNL     1     -10.894   0.157 -34.146  1.00  0.00    -0.504 OA
ATOM     29  H   UNL     1     -11.760   0.536 -33.916  1.00  0.00     0.293 HD
ENDBRANCH  25  28
BRANCH  27  30
ATOM     30  O   UNL     1     -10.114   2.605 -33.289  1.00  0.00    -0.504 OA
ATOM     31  H   UNL     1      -9.363   3.228 -33.226  1.00  0.00     0.293 HD
ENDBRANCH  27  30
ENDBRANCH  21  22
ENDBRANCH   1  20
TORSDOF 11
ENDMDL
MODEL 9
REMARK VINA RESULT:      -7.7      3.952      5.693
REMARK SMILES O=C(/C=C/c1ccc(O)c(O)c1)O[C@@H]1C[C@](O)(C(=O)O)C[C@@H](O)[C@H]1O
REMARK SMILES IDX 2 1 1 2 13 3 14 4 21 5 22 6 16 7 24 8 15 9 23 10 17 12 18 14
REMARK SMILES IDX 19 15 20 16 25 18 3 20 4 21 5 22 12 23 6 24 10 25 7 26 8 27
REMARK SMILES IDX 11 28 9 30
REMARK H PARENT 23 11 17 13 20 17 25 19 11 29 9 31
ROOT
ATOM      1  C   UNL     1      -7.525  -0.162 -27.577  1.00  0.00     0.331 C 
ATOM      2  O   UNL     1      -7.836   0.995 -27.826  1.00  0.00    -0.247 OA
ENDROOT
BRANCH   1   3
ATOM      3  O   UNL     1      -6.265  -0.618 -27.383  1.00  0.00    -0.456 OA
BRANCH   3   4
ATOM      4  C   UNL     1      -5.211   0.209 -27.922  1.00  0.00     0.211 C 
ATOM      5  C   UNL     1      -2.478   0.359 -29.086  1.00  0.00     0.082 C 
ATOM      6  C   UNL     1      -2.738   0.753 -27.633  1.00  0.00     0.150 C 
ATOM      7  C   UNL     1      -3.731   0.528 -29.956  1.00  0.00     0.167 C 
ATOM      8  C   UNL     1      -3.961   0.035 -27.039  1.00  0.00     0.184 C 
ATOM      9  C   UNL     1      -4.923  -0.223 -29.364  1.00  0.00     0.095 C 
BRANCH   6  10
ATOM     10  O   UNL     1      -2.937   2.171 -27.514  1.00  0.00    -0.390 OA
ATOM     11  H   UNL     1      -3.311   2.502 -28.357  1.00  0.00     0.211 HD
ENDBRANCH   6  10
BRANCH   7  12
ATOM     12  O   UNL     1      -4.038   1.938 -30.031  1.00  0.00    -0.378 OA
ATOM     13  H   UNL     1      -4.449   2.101 -30.907  1.00  0.00     0.212 HD
ENDBRANCH   7  12
BRANCH   7  14
ATOM     14  C   UNL     1      -3.417   0.024 -31.373  1.00  0.00     0.335 C 
ATOM     15  O   UNL     1      -3.106  -1.120 -31.660  1.00  0.00    -0.249 OA
BRANCH  14  16
ATOM     16  O   UNL     1      -3.505   1.022 -32.289  1.00  0.00    -0.479 OA
ATOM     17  H   UNL     1      -4.217   1.649 -32.027  1.00  0.00     0.296 HD
ENDBRANCH  14  16
ENDBRANCH   7  14
BRANCH   8  18
ATOM     18  O   UNL     1      -4.218   0.570 -25.733  1.00  0.00    -0.387 OA
ATOM     19  H   UNL     1      -3.350   0.871 -25.392  1.00  0.00     0.211 HD
ENDBRANCH   8  18
ENDBRANCH   3   4
ENDBRANCH   1   3
BRANCH   1  20
ATOM     20  C   UNL     1      -8.526  -1.245 -27.496  1.00  0.00     0.094 C 
ATOM     21  C   UNL     1      -8.506  -2.347 -28.262  1.00  0.00     0.016 C 
BRANCH  21  22
ATOM     22  C   UNL     1      -9.504  -3.419 -28.157  1.00  0.00    -0.021 A 
ATOM     23  C   UNL     1      -9.775  -4.287 -29.228  1.00  0.00     0.058 A 
ATOM     24  C   UNL     1     -10.161  -3.612 -26.932  1.00  0.00     0.012 A 
ATOM     25  C   UNL     1     -10.708  -5.308 -29.064  1.00  0.00     0.157 A 
ATOM     26  C   UNL     1     -11.097  -4.638 -26.777  1.00  0.00     0.051 A 
ATOM     27  C   UNL     1     -11.363  -5.476 -27.848  1.00  0.00     0.157 A 
BRANCH  25  28
ATOM     28  O   UNL     1     -11.010  -6.180 -30.074  1.00  0.00    -0.504 OA
ATOM     29  H   UNL     1     -11.026  -7.079 -29.706  1.00  0.00     0.293 HD
ENDBRANCH  25  28
BRANCH  27  30
ATOM     30  O   UNL     1     -12.275  -6.481 -27.698  1.00  0.00    -0.504 OA
ATOM     31  H   UNL     1     -12.749  -6.260 -26.871  1.00  0.00     0.293 HD
ENDBRANCH  27  30
ENDBRANCH  21  22
ENDBRANCH   1  20
TORSDOF 11
ENDMDL
MODEL 10
REMARK VINA RESULT:      -7.7      2.748      7.129
REMARK SMILES O=C(/C=C/c1ccc(O)c(O)c1)O[C@@H]1C[C@](O)(C(=O)O)C[C@@H](O)[C@H]1O
REMARK SMILES IDX 2 1 1 2 13 3 14 4 21 5 22 6 16 7 24 8 15 9 23 10 17 12 18 14
REMARK SMILES IDX 19 15 20 16 25 18 3 20 4 21 5 22 12 23 6 24 10 25 7 26 8 27
REMARK SMILES IDX 11 28 9 30
REMARK H PARENT 23 11 17 13 20 17 25 19 11 29 9 31
ROOT
ATOM      1  C   UNL     1      -8.128  -1.273 -26.375  1.00  0.00     0.331 C 
ATOM      2  O   UNL     1      -8.058  -1.548 -25.185  1.00  0.00    -0.247 OA
ENDROOT
BRANCH   1   3
ATOM      3  O   UNL     1      -9.234  -1.383 -27.148  1.00  0.00    -0.456 OA
BRANCH   3   4
ATOM      4  C   UNL     1      -8.995  -1.629 -28.550  1.00  0.00     0.211 C 
ATOM      5  C   UNL     1     -10.124  -2.347 -31.206  1.00  0.00     0.082 C 
ATOM      6  C   UNL     1      -9.354  -3.372 -30.375  1.00  0.00     0.150 C 
ATOM      7  C   UNL     1      -9.698  -0.910 -30.877  1.00  0.00     0.167 C 
ATOM      8  C   UNL     1      -9.420  -3.075 -28.867  1.00  0.00     0.184 C 
ATOM      9  C   UNL     1      -9.806  -0.628 -29.380  1.00  0.00     0.095 C 
BRANCH   6  10
ATOM     10  O   UNL     1      -7.974  -3.421 -30.771  1.00  0.00    -0.390 OA
ATOM     11  H   UNL     1      -7.841  -4.215 -31.330  1.00  0.00     0.211 HD
ENDBRANCH   6  10
BRANCH   7  12
ATOM     12  O   UNL     1      -8.328  -0.740 -31.303  1.00  0.00    -0.378 OA
ATOM     13  H   UNL     1      -7.988   0.075 -30.875  1.00  0.00     0.212 HD
ENDBRANCH   7  12
BRANCH   7  14
ATOM     14  C   UNL     1     -10.579   0.060 -31.681  1.00  0.00     0.335 C 
ATOM     15  O   UNL     1     -10.504   1.276 -31.639  1.00  0.00    -0.249 OA
BRANCH  14  16
ATOM     16  O   UNL     1     -11.484  -0.604 -32.444  1.00  0.00    -0.479 OA
ATOM     17  H   UNL     1     -12.134  -1.061 -31.864  1.00  0.00     0.296 HD
ENDBRANCH  14  16
ENDBRANCH   7  14
BRANCH   8  18
ATOM     18  O   UNL     1      -8.558  -3.992 -28.180  1.00  0.00    -0.387 OA
ATOM     19  H   UNL     1      -9.133  -4.486 -27.560  1.00  0.00     0.211 HD
ENDBRANCH   8  18
ENDBRANCH   3   4
ENDBRANCH   1   3
BRANCH   1  20
ATOM     20  C   UNL     1      -6.956  -0.811 -27.145  1.00  0.00     0.094 C 
ATOM     21  C   UNL     1      -5.755  -1.412 -27.124  1.00  0.00     0.016 C 
BRANCH  21  22
ATOM     22  C   UNL     1      -4.605  -0.943 -27.907  1.00  0.00    -0.021 A 
ATOM     23  C   UNL     1      -3.630  -0.094 -27.358  1.00  0.00     0.058 A 
ATOM     24  C   UNL     1      -4.452  -1.406 -29.223  1.00  0.00     0.012 A 
ATOM     25  C   UNL     1      -2.542   0.292 -28.135  1.00  0.00     0.157 A 
ATOM     26  C   UNL     1      -3.358  -1.010 -29.997  1.00  0.00     0.051 A 
ATOM     27  C   UNL     1      -2.412  -0.161 -29.444  1.00  0.00     0.157 A 
BRANCH  25  28
ATOM     28  O   UNL     1      -1.565   1.118 -27.651  1.00  0.00    -0.504 OA
ATOM     29  H   UNL     1      -1.005   0.605 -27.043  1.00  0.00     0.293 HD
ENDBRANCH  25  28
BRANCH  27  30
ATOM     30  O   UNL     1      -1.341   0.224 -30.198  1.00  0.00    -0.504 OA
ATOM     31  H   UNL     1      -0.568  -0.160 -29.739  1.00  0.00     0.293 HD
ENDBRANCH  27  30
ENDBRANCH  21  22
ENDBRANCH   1  20
TORSDOF 11
ENDMDL
