MODEL 1
REMARK VINA RESULT:      -8.3      0.000      0.000
REMARK SMILES O=C(/C=C/c1ccc(O)c(O)c1)O[C@@H]1C[C@](O)(C(=O)O)C[C@@H](O)[C@H]1O
REMARK SMILES IDX 2 1 1 2 13 3 14 4 21 5 22 6 16 7 24 8 15 9 23 10 17 12 18 14
REMARK SMILES IDX 19 15 20 16 25 18 3 20 4 21 5 22 12 23 6 24 10 25 7 26 8 27
REMARK SMILES IDX 11 28 9 30
REMARK H PARENT 23 11 17 13 20 17 25 19 11 29 9 31
ROOT
ATOM      1  C   UNL     1      -5.004   2.984 -30.352  1.00  0.00     0.331 C 
ATOM      2  O   UNL     1      -4.797   4.167 -30.588  1.00  0.00    -0.247 OA
ENDROOT
BRANCH   1   3
ATOM      3  O   UNL     1      -4.108   2.112 -29.835  1.00  0.00    -0.456 OA
BRANCH   3   4
ATOM      4  C   UNL     1      -4.633   0.817 -29.472  1.00  0.00     0.211 C 
ATOM      5  C   UNL     1      -4.197  -1.774 -28.078  1.00  0.00     0.082 C 
ATOM      6  C   UNL     1      -4.106  -1.674 -29.600  1.00  0.00     0.150 C 
ATOM      7  C   UNL     1      -5.107  -0.689 -27.488  1.00  0.00     0.167 C 
ATOM      8  C   UNL     1      -3.715  -0.263 -30.073  1.00  0.00     0.184 C 
ATOM      9  C   UNL     1      -4.677   0.705 -27.944  1.00  0.00     0.095 C 
BRANCH   6  10
ATOM     10  O   UNL     1      -5.355  -2.032 -30.212  1.00  0.00    -0.390 OA
ATOM     11  H   UNL     1      -5.196  -2.781 -30.823  1.00  0.00     0.211 HD
ENDBRANCH   6  10
BRANCH   7  12
ATOM     12  O   UNL     1      -6.458  -0.946 -27.931  1.00  0.00    -0.378 OA
ATOM     13  H   UNL     1      -6.400  -1.493 -28.744  1.00  0.00     0.212 HD
ENDBRANCH   7  12
BRANCH   7  14
ATOM     14  C   UNL     1      -5.071  -0.797 -25.955  1.00  0.00     0.335 C 
ATOM     15  O   UNL     1      -5.547  -1.713 -25.304  1.00  0.00    -0.249 OA
BRANCH  14  16
ATOM     16  O   UNL     1      -4.457   0.274 -25.392  1.00  0.00    -0.479 OA
ATOM     17  H   UNL     1      -4.558   1.058 -25.979  1.00  0.00     0.296 HD
ENDBRANCH  14  16
ENDBRANCH   7  14
BRANCH   8  18
ATOM     18  O   UNL     1      -3.796  -0.221 -31.505  1.00  0.00    -0.387 OA
ATOM     19  H   UNL     1      -3.134   0.442 -31.790  1.00  0.00     0.211 HD
ENDBRANCH   8  18
ENDBRANCH   3   4
ENDBRANCH   1   3
BRANCH   1  20
ATOM     20  C   UNL     1      -6.296   2.337 -30.658  1.00  0.00     0.094 C 
ATOM     21  C   UNL     1      -6.682   1.970 -31.890  1.00  0.00     0.016 C 
BRANCH  21  22
ATOM     22  C   UNL     1      -7.967   1.316 -32.170  1.00  0.00    -0.021 A 
ATOM     23  C   UNL     1      -8.911   1.070 -31.159  1.00  0.00     0.058 A 
ATOM     24  C   UNL     1      -8.278   0.982 -33.498  1.00  0.00     0.012 A 
ATOM     25  C   UNL     1     -10.127   0.478 -31.487  1.00  0.00     0.157 A 
ATOM     26  C   UNL     1      -9.501   0.385 -33.817  1.00  0.00     0.051 A 
ATOM     27  C   UNL     1     -10.415   0.137 -32.804  1.00  0.00     0.157 A 
BRANCH  25  28
ATOM     28  O   UNL     1     -11.081   0.216 -30.541  1.00  0.00    -0.504 OA
ATOM     29  H   UNL     1     -11.723   0.945 -30.544  1.00  0.00     0.293 HD
ENDBRANCH  25  28
BRANCH  27  30
ATOM     30  O   UNL     1     -11.611  -0.443 -33.115  1.00  0.00    -0.504 OA
ATOM     31  H   UNL     1     -12.260   0.014 -32.543  1.00  0.00     0.293 HD
ENDBRANCH  27  30
ENDBRANCH  21  22
ENDBRANCH   1  20
TORSDOF 11
ENDMDL
MODEL 2
REMARK VINA RESULT:      -8.1      1.737      4.204
REMARK SMILES O=C(/C=C/c1ccc(O)c(O)c1)O[C@@H]1C[C@](O)(C(=O)O)C[C@@H](O)[C@H]1O
REMARK SMILES IDX 2 1 1 2 13 3 14 4 21 5 22 6 16 7 24 8 15 9 23 10 17 12 18 14
REMARK SMILES IDX 19 15 20 16 25 18 3 20 4 21 5 22 12 23 6 24 10 25 7 26 8 27
REMARK SMILES IDX 11 28 9 30
REMARK H PARENT 23 11 17 13 20 17 25 19 11 29 9 31
ROOT
ATOM      1  C   UNL     1      -6.990  -1.158 -27.090  1.00  0.00     0.331 C 
ATOM      2  O   UNL     1      -7.497  -1.371 -25.997  1.00  0.00    -0.247 OA
ENDROOT
BRANCH   1   3
ATOM      3  O   UNL     1      -5.731  -1.494 -27.457  1.00  0.00    -0.456 OA
BRANCH   3   4
ATOM      4  C   UNL     1      -4.917  -0.414 -27.960  1.00  0.00     0.211 C 
ATOM      5  C   UNL     1      -2.211   0.546 -28.738  1.00  0.00     0.082 C 
ATOM      6  C   UNL     1      -2.844   0.965 -27.412  1.00  0.00     0.150 C 
ATOM      7  C   UNL     1      -3.271   0.194 -29.790  1.00  0.00     0.167 C 
ATOM      8  C   UNL     1      -3.861  -0.067 -26.894  1.00  0.00     0.184 C 
ATOM      9  C   UNL     1      -4.247  -0.857 -29.265  1.00  0.00     0.095 C 
BRANCH   6  10
ATOM     10  O   UNL     1      -3.504   2.235 -27.538  1.00  0.00    -0.390 OA
ATOM     11  H   UNL     1      -4.428   2.076 -27.823  1.00  0.00     0.211 HD
ENDBRANCH   6  10
BRANCH   7  12
ATOM     12  O   UNL     1      -3.993   1.402 -30.120  1.00  0.00    -0.378 OA
ATOM     13  H   UNL     1      -4.196   1.860 -29.277  1.00  0.00     0.212 HD
ENDBRANCH   7  12
BRANCH   7  14
ATOM     14  C   UNL     1      -2.559  -0.305 -31.058  1.00  0.00     0.335 C 
ATOM     15  O   UNL     1      -3.039  -1.069 -31.878  1.00  0.00    -0.249 OA
BRANCH  14  16
ATOM     16  O   UNL     1      -1.300   0.193 -31.152  1.00  0.00    -0.479 OA
ATOM     17  H   UNL     1      -1.317   1.040 -31.655  1.00  0.00     0.296 HD
ENDBRANCH  14  16
ENDBRANCH   7  14
BRANCH   8  18
ATOM     18  O   UNL     1      -4.508   0.471 -25.733  1.00  0.00    -0.387 OA
ATOM     19  H   UNL     1      -4.939  -0.291 -25.291  1.00  0.00     0.211 HD
ENDBRANCH   8  18
ENDBRANCH   3   4
ENDBRANCH   1   3
BRANCH   1  20
ATOM     20  C   UNL     1      -7.709  -0.444 -28.164  1.00  0.00     0.094 C 
ATOM     21  C   UNL     1      -8.131  -1.020 -29.301  1.00  0.00     0.016 C 
BRANCH  21  22
ATOM     22  C   UNL     1      -8.856  -0.294 -30.352  1.00  0.00    -0.021 A 
ATOM     23  C   UNL     1      -9.973  -0.846 -31.000  1.00  0.00     0.058 A 
ATOM     24  C   UNL     1      -8.449   1.011 -30.672  1.00  0.00     0.012 A 
ATOM     25  C   UNL     1     -10.643  -0.100 -31.965  1.00  0.00     0.157 A 
ATOM     26  C   UNL     1      -9.127   1.752 -31.645  1.00  0.00     0.051 A 
ATOM     27  C   UNL     1     -10.219   1.186 -32.285  1.00  0.00     0.157 A 
BRANCH  25  28
ATOM     28  O   UNL     1     -11.735  -0.590 -32.627  1.00  0.00    -0.504 OA
ATOM     29  H   UNL     1     -12.315  -1.026 -31.980  1.00  0.00     0.293 HD
ENDBRANCH  25  28
BRANCH  27  30
ATOM     30  O   UNL     1     -10.883   1.909 -33.233  1.00  0.00    -0.504 OA
ATOM     31  H   UNL     1     -10.493   2.804 -33.177  1.00  0.00     0.293 HD
ENDBRANCH  27  30
ENDBRANCH  21  22
ENDBRANCH   1  20
TORSDOF 11
ENDMDL
MODEL 3
REMARK VINA RESULT:      -7.8      4.427      6.973
REMARK SMILES O=C(/C=C/c1ccc(O)c(O)c1)O[C@@H]1C[C@](O)(C(=O)O)C[C@@H](O)[C@H]1O
REMARK SMILES IDX 2 1 1 2 13 3 14 4 21 5 22 6 16 7 24 8 15 9 23 10 17 12 18 14
REMARK SMILES IDX 19 15 20 16 25 18 3 20 4 21 5 22 12 23 6 24 10 25 7 26 8 27
REMARK SMILES IDX 11 28 9 30
REMARK H PARENT 23 11 17 13 20 17 25 19 11 29 9 31
ROOT
ATOM      1  C   UNL     1      -7.096  -2.401 -29.288  1.00  0.00     0.331 C 
ATOM      2  O   UNL     1      -6.166  -2.032 -28.584  1.00  0.00    -0.247 OA
ENDROOT
BRANCH   1   3
ATOM      3  O   UNL     1      -7.255  -2.116 -30.602  1.00  0.00    -0.456 OA
BRANCH   3   4
ATOM      4  C   UNL     1      -7.556  -0.739 -30.912  1.00  0.00     0.211 C 
ATOM      5  C   UNL     1      -7.935   1.345 -33.000  1.00  0.00     0.082 C 
ATOM      6  C   UNL     1      -6.650   1.281 -32.175  1.00  0.00     0.150 C 
ATOM      7  C   UNL     1      -9.126   0.735 -32.250  1.00  0.00     0.167 C 
ATOM      8  C   UNL     1      -6.352  -0.137 -31.660  1.00  0.00     0.184 C 
ATOM      9  C   UNL     1      -8.818  -0.685 -31.779  1.00  0.00     0.095 C 
BRANCH   6  10
ATOM     10  O   UNL     1      -6.720   2.171 -31.049  1.00  0.00    -0.390 OA
ATOM     11  H   UNL     1      -5.808   2.360 -30.747  1.00  0.00     0.211 HD
ENDBRANCH   6  10
BRANCH   7  12
ATOM     12  O   UNL     1      -9.410   1.571 -31.105  1.00  0.00    -0.378 OA
ATOM     13  H   UNL     1      -8.959   2.430 -31.252  1.00  0.00     0.212 HD
ENDBRANCH   7  12
BRANCH   7  14
ATOM     14  C   UNL     1     -10.352   0.751 -33.177  1.00  0.00     0.335 C 
ATOM     15  O   UNL     1     -10.677  -0.154 -33.927  1.00  0.00    -0.249 OA
BRANCH  14  16
ATOM     16  O   UNL     1     -11.035   1.920 -33.082  1.00  0.00    -0.479 OA
ATOM     17  H   UNL     1     -11.969   1.737 -32.831  1.00  0.00     0.296 HD
ENDBRANCH  14  16
ENDBRANCH   7  14
BRANCH   8  18
ATOM     18  O   UNL     1      -5.220  -0.078 -30.781  1.00  0.00    -0.387 OA
ATOM     19  H   UNL     1      -4.584  -0.740 -31.121  1.00  0.00     0.211 HD
ENDBRANCH   8  18
ENDBRANCH   3   4
ENDBRANCH   1   3
BRANCH   1  20
ATOM     20  C   UNL     1      -8.220  -3.195 -28.752  1.00  0.00     0.094 C 
ATOM     21  C   UNL     1      -9.233  -2.681 -28.038  1.00  0.00     0.016 C 
BRANCH  21  22
ATOM     22  C   UNL     1     -10.348  -3.488 -27.524  1.00  0.00    -0.021 A 
ATOM     23  C   UNL     1     -10.548  -4.818 -27.927  1.00  0.00     0.058 A 
ATOM     24  C   UNL     1     -11.200  -2.925 -26.561  1.00  0.00     0.012 A 
ATOM     25  C   UNL     1     -11.601  -5.548 -27.383  1.00  0.00     0.157 A 
ATOM     26  C   UNL     1     -12.257  -3.665 -26.022  1.00  0.00     0.051 A 
ATOM     27  C   UNL     1     -12.448  -4.972 -26.441  1.00  0.00     0.157 A 
BRANCH  25  28
ATOM     28  O   UNL     1     -11.841  -6.847 -27.740  1.00  0.00    -0.504 OA
ATOM     29  H   UNL     1     -12.312  -6.847 -28.591  1.00  0.00     0.293 HD
ENDBRANCH  25  28
BRANCH  27  30
ATOM     30  O   UNL     1     -13.477  -5.696 -25.913  1.00  0.00    -0.504 OA
ATOM     31  H   UNL     1     -13.730  -5.209 -25.104  1.00  0.00     0.293 HD
ENDBRANCH  27  30
ENDBRANCH  21  22
ENDBRANCH   1  20
TORSDOF 11
ENDMDL
MODEL 4
REMARK VINA RESULT:      -7.8      5.441      7.158
REMARK SMILES O=C(/C=C/c1ccc(O)c(O)c1)O[C@@H]1C[C@](O)(C(=O)O)C[C@@H](O)[C@H]1O
REMARK SMILES IDX 2 1 1 2 13 3 14 4 21 5 22 6 16 7 24 8 15 9 23 10 17 12 18 14
REMARK SMILES IDX 19 15 20 16 25 18 3 20 4 21 5 22 12 23 6 24 10 25 7 26 8 27
REMARK SMILES IDX 11 28 9 30
REMARK H PARENT 23 11 17 13 20 17 25 19 11 29 9 31
ROOT
ATOM      1  C   UNL     1     -10.029  -5.002 -29.854  1.00  0.00     0.331 C 
ATOM      2  O   UNL     1     -10.673  -5.861 -30.440  1.00  0.00    -0.247 OA
ENDROOT
BRANCH   1   3
ATOM      3  O   UNL     1      -9.709  -5.013 -28.538  1.00  0.00    -0.456 OA
BRANCH   3   4
ATOM      4  C   UNL     1     -10.796  -4.746 -27.628  1.00  0.00     0.211 C 
ATOM      5  C   UNL     1     -11.731  -4.565 -24.809  1.00  0.00     0.082 C 
ATOM      6  C   UNL     1     -12.084  -5.770 -25.680  1.00  0.00     0.150 C 
ATOM      7  C   UNL     1     -11.473  -3.309 -25.651  1.00  0.00     0.167 C 
ATOM      8  C   UNL     1     -11.050  -6.015 -26.792  1.00  0.00     0.184 C 
ATOM      9  C   UNL     1     -10.417  -3.567 -26.725  1.00  0.00     0.095 C 
BRANCH   6  10
ATOM     10  O   UNL     1     -13.376  -5.603 -26.286  1.00  0.00    -0.390 OA
ATOM     11  H   UNL     1     -13.339  -4.829 -26.885  1.00  0.00     0.211 HD
ENDBRANCH   6  10
BRANCH   7  12
ATOM     12  O   UNL     1     -12.717  -2.927 -26.280  1.00  0.00    -0.378 OA
ATOM     13  H   UNL     1     -12.709  -1.950 -26.375  1.00  0.00     0.212 HD
ENDBRANCH   7  12
BRANCH   7  14
ATOM     14  C   UNL     1     -11.034  -2.171 -24.716  1.00  0.00     0.335 C 
ATOM     15  O   UNL     1     -10.303  -1.246 -25.029  1.00  0.00    -0.249 OA
BRANCH  14  16
ATOM     16  O   UNL     1     -11.545  -2.326 -23.468  1.00  0.00    -0.479 OA
ATOM     17  H   UNL     1     -11.175  -1.635 -22.872  1.00  0.00     0.296 HD
ENDBRANCH  14  16
ENDBRANCH   7  14
BRANCH   8  18
ATOM     18  O   UNL     1     -11.531  -7.064 -27.644  1.00  0.00    -0.387 OA
ATOM     19  H   UNL     1     -10.878  -7.790 -27.568  1.00  0.00     0.211 HD
ENDBRANCH   8  18
ENDBRANCH   3   4
ENDBRANCH   1   3
BRANCH   1  20
ATOM     20  C   UNL     1      -9.544  -3.783 -30.533  1.00  0.00     0.094 C 
ATOM     21  C   UNL     1     -10.291  -2.687 -30.738  1.00  0.00     0.016 C 
BRANCH  21  22
ATOM     22  C   UNL     1      -9.786  -1.481 -31.405  1.00  0.00    -0.021 A 
ATOM     23  C   UNL     1     -10.646  -0.462 -31.848  1.00  0.00     0.058 A 
ATOM     24  C   UNL     1      -8.399  -1.321 -31.550  1.00  0.00     0.012 A 
ATOM     25  C   UNL     1     -10.111   0.676 -32.444  1.00  0.00     0.157 A 
ATOM     26  C   UNL     1      -7.871  -0.175 -32.152  1.00  0.00     0.051 A 
ATOM     27  C   UNL     1      -8.735   0.813 -32.596  1.00  0.00     0.157 A 
BRANCH  25  28
ATOM     28  O   UNL     1     -10.903   1.697 -32.894  1.00  0.00    -0.504 OA
ATOM     29  H   UNL     1     -10.571   1.981 -33.762  1.00  0.00     0.293 HD
ENDBRANCH  25  28
BRANCH  27  30
ATOM     30  O   UNL     1      -8.220   1.934 -33.181  1.00  0.00    -0.504 OA
ATOM     31  H   UNL     1      -8.158   1.708 -34.131  1.00  0.00     0.293 HD
ENDBRANCH  27  30
ENDBRANCH  21  22
ENDBRANCH   1  20
TORSDOF 11
ENDMDL
MODEL 5
REMARK VINA RESULT:      -7.7      3.910      5.154
REMARK SMILES O=C(/C=C/c1ccc(O)c(O)c1)O[C@@H]1C[C@](O)(C(=O)O)C[C@@H](O)[C@H]1O
REMARK SMILES IDX 2 1 1 2 13 3 14 4 21 5 22 6 16 7 24 8 15 9 23 10 17 12 18 14
REMARK SMILES IDX 19 15 20 16 25 18 3 20 4 21 5 22 12 23 6 24 10 25 7 26 8 27
REMARK SMILES IDX 11 28 9 30
REMARK H PARENT 23 11 17 13 20 17 25 19 11 29 9 31
ROOT
ATOM      1  C   UNL     1      -7.585  -0.649 -30.963  1.00  0.00     0.331 C 
ATOM      2  O   UNL     1      -7.295  -0.378 -32.120  1.00  0.00    -0.247 OA
ENDROOT
BRANCH   1   3
ATOM      3  O   UNL     1      -7.147   0.007 -29.863  1.00  0.00    -0.456 OA
BRANCH   3   4
ATOM      4  C   UNL     1      -5.879   0.683 -30.001  1.00  0.00     0.211 C 
ATOM      5  C   UNL     1      -3.943   2.651 -28.895  1.00  0.00     0.082 C 
ATOM      6  C   UNL     1      -4.838   3.008 -30.081  1.00  0.00     0.150 C 
ATOM      7  C   UNL     1      -3.691   1.141 -28.804  1.00  0.00     0.167 C 
ATOM      8  C   UNL     1      -6.145   2.196 -30.096  1.00  0.00     0.184 C 
ATOM      9  C   UNL     1      -5.003   0.359 -28.786  1.00  0.00     0.095 C 
BRANCH   6  10
ATOM     10  O   UNL     1      -4.151   2.793 -31.324  1.00  0.00    -0.390 OA
ATOM     11  H   UNL     1      -4.639   3.263 -32.032  1.00  0.00     0.211 HD
ENDBRANCH   6  10
BRANCH   7  12
ATOM     12  O   UNL     1      -2.911   0.747 -29.955  1.00  0.00    -0.378 OA
ATOM     13  H   UNL     1      -3.452   0.933 -30.753  1.00  0.00     0.212 HD
ENDBRANCH   7  12
BRANCH   7  14
ATOM     14  C   UNL     1      -2.866   0.855 -27.540  1.00  0.00     0.335 C 
ATOM     15  O   UNL     1      -3.327   0.519 -26.461  1.00  0.00    -0.249 OA
BRANCH  14  16
ATOM     16  O   UNL     1      -1.539   1.043 -27.755  1.00  0.00    -0.479 OA
ATOM     17  H   UNL     1      -1.162   1.594 -27.032  1.00  0.00     0.296 HD
ENDBRANCH  14  16
ENDBRANCH   7  14
BRANCH   8  18
ATOM     18  O   UNL     1      -6.851   2.486 -31.311  1.00  0.00    -0.387 OA
ATOM     19  H   UNL     1      -6.259   2.200 -32.038  1.00  0.00     0.211 HD
ENDBRANCH   8  18
ENDBRANCH   3   4
ENDBRANCH   1   3
BRANCH   1  20
ATOM     20  C   UNL     1      -8.448  -1.797 -30.617  1.00  0.00     0.094 C 
ATOM     21  C   UNL     1      -8.634  -2.250 -29.367  1.00  0.00     0.016 C 
BRANCH  21  22
ATOM     22  C   UNL     1      -9.506  -3.386 -29.043  1.00  0.00    -0.021 A 
ATOM     23  C   UNL     1      -9.997  -4.252 -30.035  1.00  0.00     0.058 A 
ATOM     24  C   UNL     1      -9.808  -3.642 -27.696  1.00  0.00     0.012 A 
ATOM     25  C   UNL     1     -10.793  -5.333 -29.668  1.00  0.00     0.157 A 
ATOM     26  C   UNL     1     -10.610  -4.730 -27.338  1.00  0.00     0.051 A 
ATOM     27  C   UNL     1     -11.097  -5.565 -28.331  1.00  0.00     0.157 A 
BRANCH  25  28
ATOM     28  O   UNL     1     -11.297  -6.205 -30.594  1.00  0.00    -0.504 OA
ATOM     29  H   UNL     1     -11.570  -5.697 -31.376  1.00  0.00     0.293 HD
ENDBRANCH  25  28
BRANCH  27  30
ATOM     30  O   UNL     1     -11.878  -6.629 -27.982  1.00  0.00    -0.504 OA
ATOM     31  H   UNL     1     -12.386  -6.317 -27.207  1.00  0.00     0.293 HD
ENDBRANCH  27  30
ENDBRANCH  21  22
ENDBRANCH   1  20
TORSDOF 11
ENDMDL
MODEL 6
REMARK VINA RESULT:      -7.7      3.762      4.540
REMARK SMILES O=C(/C=C/c1ccc(O)c(O)c1)O[C@@H]1C[C@](O)(C(=O)O)C[C@@H](O)[C@H]1O
REMARK SMILES IDX 2 1 1 2 13 3 14 4 21 5 22 6 16 7 24 8 15 9 23 10 17 12 18 14
REMARK SMILES IDX 19 15 20 16 25 18 3 20 4 21 5 22 12 23 6 24 10 25 7 26 8 27
REMARK SMILES IDX 11 28 9 30
REMARK H PARENT 23 11 17 13 20 17 25 19 11 29 9 31
ROOT
ATOM      1  C   UNL     1      -7.208  -0.519 -30.744  1.00  0.00     0.331 C 
ATOM      2  O   UNL     1      -6.777  -0.575 -31.888  1.00  0.00    -0.247 OA
ENDROOT
BRANCH   1   3
ATOM      3  O   UNL     1      -6.787   0.335 -29.782  1.00  0.00    -0.456 OA
BRANCH   3   4
ATOM      4  C   UNL     1      -5.649  -0.103 -29.010  1.00  0.00     0.211 C 
ATOM      5  C   UNL     1      -3.699   0.490 -26.844  1.00  0.00     0.082 C 
ATOM      6  C   UNL     1      -3.300   0.602 -28.315  1.00  0.00     0.150 C 
ATOM      7  C   UNL     1      -4.848  -0.505 -26.638  1.00  0.00     0.167 C 
ATOM      8  C   UNL     1      -4.501   0.900 -29.228  1.00  0.00     0.184 C 
ATOM      9  C   UNL     1      -6.041  -0.168 -27.530  1.00  0.00     0.095 C 
BRANCH   6  10
ATOM     10  O   UNL     1      -2.669  -0.607 -28.769  1.00  0.00    -0.390 OA
ATOM     11  H   UNL     1      -1.712  -0.549 -28.571  1.00  0.00     0.211 HD
ENDBRANCH   6  10
BRANCH   7  12
ATOM     12  O   UNL     1      -4.360  -1.826 -26.965  1.00  0.00    -0.378 OA
ATOM     13  H   UNL     1      -3.865  -1.755 -27.809  1.00  0.00     0.212 HD
ENDBRANCH   7  12
BRANCH   7  14
ATOM     14  C   UNL     1      -5.251  -0.491 -25.156  1.00  0.00     0.335 C 
ATOM     15  O   UNL     1      -6.033  -1.267 -24.633  1.00  0.00    -0.249 OA
BRANCH  14  16
ATOM     16  O   UNL     1      -4.643   0.518 -24.482  1.00  0.00    -0.479 OA
ATOM     17  H   UNL     1      -4.058   1.019 -25.095  1.00  0.00     0.296 HD
ENDBRANCH  14  16
ENDBRANCH   7  14
BRANCH   8  18
ATOM     18  O   UNL     1      -4.065   0.843 -30.594  1.00  0.00    -0.387 OA
ATOM     19  H   UNL     1      -4.017  -0.110 -30.819  1.00  0.00     0.211 HD
ENDBRANCH   8  18
ENDBRANCH   3   4
ENDBRANCH   1   3
BRANCH   1  20
ATOM     20  C   UNL     1      -8.248  -1.443 -30.250  1.00  0.00     0.094 C 
ATOM     21  C   UNL     1      -8.054  -2.755 -30.043  1.00  0.00     0.016 C 
BRANCH  21  22
ATOM     22  C   UNL     1      -9.099  -3.655 -29.540  1.00  0.00    -0.021 A 
ATOM     23  C   UNL     1      -9.810  -4.517 -30.392  1.00  0.00     0.058 A 
ATOM     24  C   UNL     1      -9.350  -3.692 -28.159  1.00  0.00     0.012 A 
ATOM     25  C   UNL     1     -10.767  -5.374 -29.856  1.00  0.00     0.157 A 
ATOM     26  C   UNL     1     -10.316  -4.554 -27.631  1.00  0.00     0.051 A 
ATOM     27  C   UNL     1     -11.018  -5.387 -28.488  1.00  0.00     0.157 A 
BRANCH  25  28
ATOM     28  O   UNL     1     -11.489  -6.232 -30.641  1.00  0.00    -0.504 OA
ATOM     29  H   UNL     1     -12.139  -5.713 -31.144  1.00  0.00     0.293 HD
ENDBRANCH  25  28
BRANCH  27  30
ATOM     30  O   UNL     1     -11.958  -6.232 -27.973  1.00  0.00    -0.504 OA
ATOM     31  H   UNL     1     -12.662  -6.258 -28.652  1.00  0.00     0.293 HD
ENDBRANCH  27  30
ENDBRANCH  21  22
ENDBRANCH   1  20
TORSDOF 11
ENDMDL
MODEL 7
REMARK VINA RESULT:      -7.7      1.995      4.425
REMARK SMILES O=C(/C=C/c1ccc(O)c(O)c1)O[C@@H]1C[C@](O)(C(=O)O)C[C@@H](O)[C@H]1O
REMARK SMILES IDX 2 1 1 2 13 3 14 4 21 5 22 6 16 7 24 8 15 9 23 10 17 12 18 14
REMARK SMILES IDX 19 15 20 16 25 18 3 20 4 21 5 22 12 23 6 24 10 25 7 26 8 27
REMARK SMILES IDX 11 28 9 30
REMARK H PARENT 23 11 17 13 20 17 25 19 11 29 9 31
ROOT
ATOM      1  C   UNL     1      -7.696  -3.139 -28.389  1.00  0.00     0.331 C 
ATOM      2  O   UNL     1      -8.477  -4.021 -28.058  1.00  0.00    -0.247 OA
ENDROOT
BRANCH   1   3
ATOM      3  O   UNL     1      -6.383  -3.083 -28.066  1.00  0.00    -0.456 OA
BRANCH   3   4
ATOM      4  C   UNL     1      -5.781  -1.772 -28.115  1.00  0.00     0.211 C 
ATOM      5  C   UNL     1      -3.297  -0.138 -28.031  1.00  0.00     0.082 C 
ATOM      6  C   UNL     1      -4.225  -0.224 -26.819  1.00  0.00     0.150 C 
ATOM      7  C   UNL     1      -4.049  -0.387 -29.344  1.00  0.00     0.167 C 
ATOM      8  C   UNL     1      -5.034  -1.532 -26.791  1.00  0.00     0.184 C 
ATOM      9  C   UNL     1      -4.816  -1.707 -29.304  1.00  0.00     0.095 C 
BRANCH   6  10
ATOM     10  O   UNL     1      -5.142   0.881 -26.797  1.00  0.00    -0.390 OA
ATOM     11  H   UNL     1      -6.024   0.546 -26.536  1.00  0.00     0.211 HD
ENDBRANCH   6  10
BRANCH   7  12
ATOM     12  O   UNL     1      -4.977   0.704 -29.543  1.00  0.00    -0.378 OA
ATOM     13  H   UNL     1      -4.584   1.304 -30.212  1.00  0.00     0.212 HD
ENDBRANCH   7  12
BRANCH   7  14
ATOM     14  C   UNL     1      -3.037  -0.377 -30.500  1.00  0.00     0.335 C 
ATOM     15  O   UNL     1      -3.177  -0.961 -31.562  1.00  0.00    -0.249 OA
BRANCH  14  16
ATOM     16  O   UNL     1      -1.935   0.353 -30.193  1.00  0.00    -0.479 OA
ATOM     17  H   UNL     1      -1.710   0.946 -30.946  1.00  0.00     0.296 HD
ENDBRANCH  14  16
ENDBRANCH   7  14
BRANCH   8  18
ATOM     18  O   UNL     1      -5.976  -1.465 -25.712  1.00  0.00    -0.387 OA
ATOM     19  H   UNL     1      -6.301  -2.381 -25.583  1.00  0.00     0.211 HD
ENDBRANCH   8  18
ENDBRANCH   3   4
ENDBRANCH   1   3
BRANCH   1  20
ATOM     20  C   UNL     1      -8.125  -1.964 -29.175  1.00  0.00     0.094 C 
ATOM     21  C   UNL     1      -8.407  -1.998 -30.487  1.00  0.00     0.016 C 
BRANCH  21  22
ATOM     22  C   UNL     1      -8.844  -0.820 -31.247  1.00  0.00    -0.021 A 
ATOM     23  C   UNL     1      -9.664  -0.932 -32.383  1.00  0.00     0.058 A 
ATOM     24  C   UNL     1      -8.475   0.454 -30.788  1.00  0.00     0.012 A 
ATOM     25  C   UNL     1     -10.076   0.220 -33.046  1.00  0.00     0.157 A 
ATOM     26  C   UNL     1      -8.892   1.605 -31.463  1.00  0.00     0.051 A 
ATOM     27  C   UNL     1      -9.688   1.476 -32.590  1.00  0.00     0.157 A 
BRANCH  25  28
ATOM     28  O   UNL     1     -10.873   0.168 -34.157  1.00  0.00    -0.504 OA
ATOM     29  H   UNL     1     -11.801   0.187 -33.868  1.00  0.00     0.293 HD
ENDBRANCH  25  28
BRANCH  27  30
ATOM     30  O   UNL     1     -10.099   2.599 -33.248  1.00  0.00    -0.504 OA
ATOM     31  H   UNL     1     -10.912   2.874 -32.779  1.00  0.00     0.293 HD
ENDBRANCH  27  30
ENDBRANCH  21  22
ENDBRANCH   1  20
TORSDOF 11
ENDMDL
MODEL 8
REMARK VINA RESULT:      -7.7      3.618      4.706
REMARK SMILES O=C(/C=C/c1ccc(O)c(O)c1)O[C@@H]1C[C@](O)(C(=O)O)C[C@@H](O)[C@H]1O
REMARK SMILES IDX 2 1 1 2 13 3 14 4 21 5 22 6 16 7 24 8 15 9 23 10 17 12 18 14
REMARK SMILES IDX 19 15 20 16 25 18 3 20 4 21 5 22 12 23 6 24 10 25 7 26 8 27
REMARK SMILES IDX 11 28 9 30
REMARK H PARENT 23 11 17 13 20 17 25 19 11 29 9 31
ROOT
ATOM      1  C   UNL     1      -6.892  -0.214 -31.583  1.00  0.00     0.331 C 
ATOM      2  O   UNL     1      -7.700   0.452 -32.214  1.00  0.00    -0.247 OA
ENDROOT
BRANCH   1   3
ATOM      3  O   UNL     1      -5.547  -0.062 -31.613  1.00  0.00    -0.456 OA
BRANCH   3   4
ATOM      4  C   UNL     1      -4.905   0.086 -30.329  1.00  0.00     0.211 C 
ATOM      5  C   UNL     1      -2.609   1.159 -28.772  1.00  0.00     0.082 C 
ATOM      6  C   UNL     1      -2.695  -0.325 -29.126  1.00  0.00     0.150 C 
ATOM      7  C   UNL     1      -3.995   1.813 -28.710  1.00  0.00     0.167 C 
ATOM      8  C   UNL     1      -3.518  -0.578 -30.401  1.00  0.00     0.184 C 
ATOM      9  C   UNL     1      -4.779   1.577 -30.001  1.00  0.00     0.095 C 
BRANCH   6  10
ATOM     10  O   UNL     1      -3.280  -1.076 -28.049  1.00  0.00    -0.390 OA
ATOM     11  H   UNL     1      -3.626  -0.444 -27.385  1.00  0.00     0.211 HD
ENDBRANCH   6  10
BRANCH   7  12
ATOM     12  O   UNL     1      -4.714   1.234 -27.598  1.00  0.00    -0.378 OA
ATOM     13  H   UNL     1      -4.503   1.769 -26.803  1.00  0.00     0.212 HD
ENDBRANCH   7  12
BRANCH   7  14
ATOM     14  C   UNL     1      -3.819   3.316 -28.443  1.00  0.00     0.335 C 
ATOM     15  O   UNL     1      -2.748   3.885 -28.311  1.00  0.00    -0.249 OA
BRANCH  14  16
ATOM     16  O   UNL     1      -5.015   3.950 -28.349  1.00  0.00    -0.479 OA
ATOM     17  H   UNL     1      -5.373   3.846 -27.438  1.00  0.00     0.296 HD
ENDBRANCH  14  16
ENDBRANCH   7  14
BRANCH   8  18
ATOM     18  O   UNL     1      -3.670  -1.993 -30.576  1.00  0.00    -0.387 OA
ATOM     19  H   UNL     1      -4.449  -2.247 -30.037  1.00  0.00     0.211 HD
ENDBRANCH   8  18
ENDBRANCH   3   4
ENDBRANCH   1   3
BRANCH   1  20
ATOM     20  C   UNL     1      -7.304  -1.334 -30.714  1.00  0.00     0.094 C 
ATOM     21  C   UNL     1      -8.489  -1.960 -30.802  1.00  0.00     0.016 C 
BRANCH  21  22
ATOM     22  C   UNL     1      -8.875  -3.080 -29.935  1.00  0.00    -0.021 A 
ATOM     23  C   UNL     1      -9.257  -2.886 -28.597  1.00  0.00     0.058 A 
ATOM     24  C   UNL     1      -8.918  -4.372 -30.482  1.00  0.00     0.012 A 
ATOM     25  C   UNL     1      -9.646  -3.980 -27.830  1.00  0.00     0.157 A 
ATOM     26  C   UNL     1      -9.308  -5.465 -29.702  1.00  0.00     0.051 A 
ATOM     27  C   UNL     1      -9.667  -5.257 -28.380  1.00  0.00     0.157 A 
BRANCH  25  28
ATOM     28  O   UNL     1     -10.025  -3.846 -26.522  1.00  0.00    -0.504 OA
ATOM     29  H   UNL     1      -9.234  -3.649 -25.992  1.00  0.00     0.293 HD
ENDBRANCH  25  28
BRANCH  27  30
ATOM     30  O   UNL     1     -10.052  -6.323 -27.619  1.00  0.00    -0.504 OA
ATOM     31  H   UNL     1     -10.203  -7.043 -28.263  1.00  0.00     0.293 HD
ENDBRANCH  27  30
ENDBRANCH  21  22
ENDBRANCH   1  20
TORSDOF 11
ENDMDL
MODEL 9
REMARK VINA RESULT:      -7.7      4.761      7.903
REMARK SMILES O=C(/C=C/c1ccc(O)c(O)c1)O[C@@H]1C[C@](O)(C(=O)O)C[C@@H](O)[C@H]1O
REMARK SMILES IDX 2 1 1 2 13 3 14 4 21 5 22 6 16 7 24 8 15 9 23 10 17 12 18 14
REMARK SMILES IDX 19 15 20 16 25 18 3 20 4 21 5 22 12 23 6 24 10 25 7 26 8 27
REMARK SMILES IDX 11 28 9 30
REMARK H PARENT 23 11 17 13 20 17 25 19 11 29 9 31
ROOT
ATOM      1  C   UNL     1      -8.028  -0.947 -25.945  1.00  0.00     0.331 C 
ATOM      2  O   UNL     1      -8.021  -0.902 -24.722  1.00  0.00    -0.247 OA
ENDROOT
BRANCH   1   3
ATOM      3  O   UNL     1      -9.042  -1.405 -26.715  1.00  0.00    -0.456 OA
BRANCH   3   4
ATOM      4  C   UNL     1      -9.840  -2.459 -26.135  1.00  0.00     0.211 C 
ATOM      5  C   UNL     1     -12.230  -4.216 -26.354  1.00  0.00     0.082 C 
ATOM      6  C   UNL     1     -12.222  -3.012 -25.413  1.00  0.00     0.150 C 
ATOM      7  C   UNL     1     -10.815  -4.751 -26.609  1.00  0.00     0.167 C 
ATOM      8  C   UNL     1     -11.256  -1.910 -25.879  1.00  0.00     0.184 C 
ATOM      9  C   UNL     1      -9.884  -3.646 -27.104  1.00  0.00     0.095 C 
BRANCH   6  10
ATOM     10  O   UNL     1     -11.858  -3.407 -24.080  1.00  0.00    -0.390 OA
ATOM     11  H   UNL     1     -12.336  -4.233 -23.861  1.00  0.00     0.211 HD
ENDBRANCH   6  10
BRANCH   7  12
ATOM     12  O   UNL     1     -10.309  -5.289 -25.367  1.00  0.00    -0.378 OA
ATOM     13  H   UNL     1     -10.505  -6.250 -25.363  1.00  0.00     0.212 HD
ENDBRANCH   7  12
BRANCH   7  14
ATOM     14  C   UNL     1     -10.899  -5.895 -27.633  1.00  0.00     0.335 C 
ATOM     15  O   UNL     1     -11.910  -6.237 -28.223  1.00  0.00    -0.249 OA
BRANCH  14  16
ATOM     16  O   UNL     1      -9.700  -6.508 -27.795  1.00  0.00    -0.479 OA
ATOM     17  H   UNL     1      -8.990  -5.959 -27.392  1.00  0.00     0.296 HD
ENDBRANCH  14  16
ENDBRANCH   7  14
BRANCH   8  18
ATOM     18  O   UNL     1     -11.201  -0.892 -24.870  1.00  0.00    -0.387 OA
ATOM     19  H   UNL     1     -12.017  -0.360 -24.983  1.00  0.00     0.211 HD
ENDBRANCH   8  18
ENDBRANCH   3   4
ENDBRANCH   1   3
BRANCH   1  20
ATOM     20  C   UNL     1      -6.864  -0.528 -26.753  1.00  0.00     0.094 C 
ATOM     21  C   UNL     1      -5.794  -1.302 -26.991  1.00  0.00     0.016 C 
BRANCH  21  22
ATOM     22  C   UNL     1      -4.652  -0.870 -27.807  1.00  0.00    -0.021 A 
ATOM     23  C   UNL     1      -3.646  -0.036 -27.293  1.00  0.00     0.058 A 
ATOM     24  C   UNL     1      -4.540  -1.355 -29.120  1.00  0.00     0.012 A 
ATOM     25  C   UNL     1      -2.568   0.316 -28.101  1.00  0.00     0.157 A 
ATOM     26  C   UNL     1      -3.455  -0.994 -29.924  1.00  0.00     0.051 A 
ATOM     27  C   UNL     1      -2.479  -0.158 -29.405  1.00  0.00     0.157 A 
BRANCH  25  28
ATOM     28  O   UNL     1      -1.562   1.126 -27.650  1.00  0.00    -0.504 OA
ATOM     29  H   UNL     1      -1.359   1.776 -28.344  1.00  0.00     0.293 HD
ENDBRANCH  25  28
BRANCH  27  30
ATOM     30  O   UNL     1      -1.417   0.192 -30.189  1.00  0.00    -0.504 OA
ATOM     31  H   UNL     1      -1.681  -0.074 -31.092  1.00  0.00     0.293 HD
ENDBRANCH  27  30
ENDBRANCH  21  22
ENDBRANCH   1  20
TORSDOF 11
ENDMDL
MODEL 10
REMARK VINA RESULT:      -7.7      3.932      5.740
REMARK SMILES O=C(/C=C/c1ccc(O)c(O)c1)O[C@@H]1C[C@](O)(C(=O)O)C[C@@H](O)[C@H]1O
REMARK SMILES IDX 2 1 1 2 13 3 14 4 21 5 22 6 16 7 24 8 15 9 23 10 17 12 18 14
REMARK SMILES IDX 19 15 20 16 25 18 3 20 4 21 5 22 12 23 6 24 10 25 7 26 8 27
REMARK SMILES IDX 11 28 9 30
REMARK H PARENT 23 11 17 13 20 17 25 19 11 29 9 31
ROOT
ATOM      1  C   UNL     1      -7.456  -0.181 -27.347  1.00  0.00     0.331 C 
ATOM      2  O   UNL     1      -7.757   1.002 -27.434  1.00  0.00    -0.247 OA
ENDROOT
BRANCH   1   3
ATOM      3  O   UNL     1      -6.198  -0.680 -27.360  1.00  0.00    -0.456 OA
BRANCH   3   4
ATOM      4  C   UNL     1      -5.187   0.187 -27.917  1.00  0.00     0.211 C 
ATOM      5  C   UNL     1      -2.474   0.447 -29.109  1.00  0.00     0.082 C 
ATOM      6  C   UNL     1      -2.738   0.844 -27.657  1.00  0.00     0.150 C 
ATOM      7  C   UNL     1      -3.741   0.550 -29.968  1.00  0.00     0.167 C 
ATOM      8  C   UNL     1      -3.923   0.079 -27.044  1.00  0.00     0.184 C 
ATOM      9  C   UNL     1      -4.893  -0.246 -29.357  1.00  0.00     0.095 C 
BRANCH   6  10
ATOM     10  O   UNL     1      -2.999   2.253 -27.551  1.00  0.00    -0.390 OA
ATOM     11  H   UNL     1      -3.492   2.414 -26.720  1.00  0.00     0.211 HD
ENDBRANCH   6  10
BRANCH   7  12
ATOM     12  O   UNL     1      -4.112   1.944 -30.054  1.00  0.00    -0.378 OA
ATOM     13  H   UNL     1      -5.012   2.032 -29.673  1.00  0.00     0.212 HD
ENDBRANCH   7  12
BRANCH   7  14
ATOM     14  C   UNL     1      -3.418   0.046 -31.383  1.00  0.00     0.335 C 
ATOM     15  O   UNL     1      -3.118  -1.101 -31.669  1.00  0.00    -0.249 OA
BRANCH  14  16
ATOM     16  O   UNL     1      -3.485   1.048 -32.297  1.00  0.00    -0.479 OA
ATOM     17  H   UNL     1      -2.648   1.566 -32.282  1.00  0.00     0.296 HD
ENDBRANCH  14  16
ENDBRANCH   7  14
BRANCH   8  18
ATOM     18  O   UNL     1      -4.190   0.615 -25.741  1.00  0.00    -0.387 OA
ATOM     19  H   UNL     1      -3.441   1.212 -25.539  1.00  0.00     0.211 HD
ENDBRANCH   8  18
ENDBRANCH   3   4
ENDBRANCH   1   3
BRANCH   1  20
ATOM     20  C   UNL     1      -8.475  -1.246 -27.256  1.00  0.00     0.094 C 
ATOM     21  C   UNL     1      -8.560  -2.281 -28.107  1.00  0.00     0.016 C 
BRANCH  21  22
ATOM     22  C   UNL     1      -9.574  -3.337 -27.992  1.00  0.00    -0.021 A 
ATOM     23  C   UNL     1      -9.848  -4.221 -29.050  1.00  0.00     0.058 A 
ATOM     24  C   UNL     1     -10.244  -3.499 -26.770  1.00  0.00     0.012 A 
ATOM     25  C   UNL     1     -10.795  -5.226 -28.875  1.00  0.00     0.157 A 
ATOM     26  C   UNL     1     -11.196  -4.510 -26.605  1.00  0.00     0.051 A 
ATOM     27  C   UNL     1     -11.464  -5.364 -27.663  1.00  0.00     0.157 A 
BRANCH  25  28
ATOM     28  O   UNL     1     -11.100  -6.112 -29.872  1.00  0.00    -0.504 OA
ATOM     29  H   UNL     1     -11.839  -6.668 -29.571  1.00  0.00     0.293 HD
ENDBRANCH  25  28
BRANCH  27  30
ATOM     30  O   UNL     1     -12.390  -6.353 -27.502  1.00  0.00    -0.504 OA
ATOM     31  H   UNL     1     -11.947  -7.014 -26.933  1.00  0.00     0.293 HD
ENDBRANCH  27  30
ENDBRANCH  21  22
ENDBRANCH   1  20
TORSDOF 11
ENDMDL
