MODEL 1
REMARK VINA RESULT:      -8.4      0.000      0.000
REMARK SMILES O=C(/C=C/c1ccc(O)c(O)c1)O[C@@H]1C[C@](O)(C(=O)O)C[C@@H](O)[C@H]1O
REMARK SMILES IDX 2 1 1 2 13 3 14 4 21 5 22 6 16 7 24 8 15 9 23 10 17 12 18 14
REMARK SMILES IDX 19 15 20 16 25 18 3 20 4 21 5 22 12 23 6 24 10 25 7 26 8 27
REMARK SMILES IDX 11 28 9 30
REMARK H PARENT 23 11 17 13 20 17 25 19 11 29 9 31
ROOT
ATOM      1  C   UNL     1      -5.026   3.050 -30.347  1.00  0.00     0.331 C 
ATOM      2  O   UNL     1      -4.872   4.258 -30.465  1.00  0.00    -0.247 OA
ENDROOT
BRANCH   1   3
ATOM      3  O   UNL     1      -4.072   2.164 -29.976  1.00  0.00    -0.456 OA
BRANCH   3   4
ATOM      4  C   UNL     1      -4.546   0.846 -29.626  1.00  0.00     0.211 C 
ATOM      5  C   UNL     1      -4.023  -1.726 -28.227  1.00  0.00     0.082 C 
ATOM      6  C   UNL     1      -3.903  -1.618 -29.747  1.00  0.00     0.150 C 
ATOM      7  C   UNL     1      -4.993  -0.685 -27.655  1.00  0.00     0.167 C 
ATOM      8  C   UNL     1      -3.567  -0.190 -30.209  1.00  0.00     0.184 C 
ATOM      9  C   UNL     1      -4.618   0.728 -28.100  1.00  0.00     0.095 C 
BRANCH   6  10
ATOM     10  O   UNL     1      -5.121  -2.032 -30.387  1.00  0.00    -0.390 OA
ATOM     11  H   UNL     1      -5.435  -2.852 -29.953  1.00  0.00     0.211 HD
ENDBRANCH   6  10
BRANCH   7  12
ATOM     12  O   UNL     1      -6.321  -1.003 -28.129  1.00  0.00    -0.378 OA
ATOM     13  H   UNL     1      -6.288  -1.907 -28.507  1.00  0.00     0.212 HD
ENDBRANCH   7  12
BRANCH   7  14
ATOM     14  C   UNL     1      -4.986  -0.796 -26.122  1.00  0.00     0.335 C 
ATOM     15  O   UNL     1      -5.408  -1.746 -25.485  1.00  0.00    -0.249 OA
BRANCH  14  16
ATOM     16  O   UNL     1      -4.467   0.316 -25.544  1.00  0.00    -0.479 OA
ATOM     17  H   UNL     1      -3.684   0.621 -26.057  1.00  0.00     0.296 HD
ENDBRANCH  14  16
ENDBRANCH   7  14
BRANCH   8  18
ATOM     18  O   UNL     1      -3.619  -0.148 -31.642  1.00  0.00    -0.387 OA
ATOM     19  H   UNL     1      -4.552  -0.325 -31.881  1.00  0.00     0.211 HD
ENDBRANCH   8  18
ENDBRANCH   3   4
ENDBRANCH   1   3
BRANCH   1  20
ATOM     20  C   UNL     1      -6.311   2.389 -30.650  1.00  0.00     0.094 C 
ATOM     21  C   UNL     1      -6.694   2.014 -31.881  1.00  0.00     0.016 C 
BRANCH  21  22
ATOM     22  C   UNL     1      -7.972   1.346 -32.159  1.00  0.00    -0.021 A 
ATOM     23  C   UNL     1      -8.907   1.082 -31.145  1.00  0.00     0.058 A 
ATOM     24  C   UNL     1      -8.285   1.016 -33.487  1.00  0.00     0.012 A 
ATOM     25  C   UNL     1     -10.118   0.477 -31.470  1.00  0.00     0.157 A 
ATOM     26  C   UNL     1      -9.503   0.406 -33.803  1.00  0.00     0.051 A 
ATOM     27  C   UNL     1     -10.408   0.140 -32.788  1.00  0.00     0.157 A 
BRANCH  25  28
ATOM     28  O   UNL     1     -11.063   0.197 -30.521  1.00  0.00    -0.504 OA
ATOM     29  H   UNL     1     -11.723  -0.399 -30.914  1.00  0.00     0.293 HD
ENDBRANCH  25  28
BRANCH  27  30
ATOM     30  O   UNL     1     -11.598  -0.452 -33.096  1.00  0.00    -0.504 OA
ATOM     31  H   UNL     1     -11.928  -0.799 -32.242  1.00  0.00     0.293 HD
ENDBRANCH  27  30
ENDBRANCH  21  22
ENDBRANCH   1  20
TORSDOF 11
ENDMDL
MODEL 2
REMARK VINA RESULT:      -8.1      1.708      4.196
REMARK SMILES O=C(/C=C/c1ccc(O)c(O)c1)O[C@@H]1C[C@](O)(C(=O)O)C[C@@H](O)[C@H]1O
REMARK SMILES IDX 2 1 1 2 13 3 14 4 21 5 22 6 16 7 24 8 15 9 23 10 17 12 18 14
REMARK SMILES IDX 19 15 20 16 25 18 3 20 4 21 5 22 12 23 6 24 10 25 7 26 8 27
REMARK SMILES IDX 11 28 9 30
REMARK H PARENT 23 11 17 13 20 17 25 19 11 29 9 31
ROOT
ATOM      1  C   UNL     1      -7.064  -1.268 -27.104  1.00  0.00     0.331 C 
ATOM      2  O   UNL     1      -7.681  -1.554 -26.087  1.00  0.00    -0.247 OA
ENDROOT
BRANCH   1   3
ATOM      3  O   UNL     1      -5.760  -1.542 -27.342  1.00  0.00    -0.456 OA
BRANCH   3   4
ATOM      4  C   UNL     1      -4.980  -0.452 -27.878  1.00  0.00     0.211 C 
ATOM      5  C   UNL     1      -2.310   0.557 -28.717  1.00  0.00     0.082 C 
ATOM      6  C   UNL     1      -2.933   0.986 -27.389  1.00  0.00     0.150 C 
ATOM      7  C   UNL     1      -3.377   0.159 -29.745  1.00  0.00     0.167 C 
ATOM      8  C   UNL     1      -3.917  -0.059 -26.836  1.00  0.00     0.184 C 
ATOM      9  C   UNL     1      -4.320  -0.905 -29.185  1.00  0.00     0.095 C 
BRANCH   6  10
ATOM     10  O   UNL     1      -3.626   2.237 -27.529  1.00  0.00    -0.390 OA
ATOM     11  H   UNL     1      -4.098   2.425 -26.692  1.00  0.00     0.211 HD
ENDBRANCH   6  10
BRANCH   7  12
ATOM     12  O   UNL     1      -4.134   1.342 -30.087  1.00  0.00    -0.378 OA
ATOM     13  H   UNL     1      -5.008   1.267 -29.648  1.00  0.00     0.212 HD
ENDBRANCH   7  12
BRANCH   7  14
ATOM     14  C   UNL     1      -2.672  -0.348 -31.014  1.00  0.00     0.335 C 
ATOM     15  O   UNL     1      -3.117  -1.190 -31.775  1.00  0.00    -0.249 OA
BRANCH  14  16
ATOM     16  O   UNL     1      -1.463   0.245 -31.184  1.00  0.00    -0.479 OA
ATOM     17  H   UNL     1      -1.474   0.788 -32.005  1.00  0.00     0.296 HD
ENDBRANCH  14  16
ENDBRANCH   7  14
BRANCH   8  18
ATOM     18  O   UNL     1      -4.560   0.485 -25.675  1.00  0.00    -0.387 OA
ATOM     19  H   UNL     1      -5.383   0.907 -25.999  1.00  0.00     0.211 HD
ENDBRANCH   8  18
ENDBRANCH   3   4
ENDBRANCH   1   3
BRANCH   1  20
ATOM     20  C   UNL     1      -7.687  -0.524 -28.218  1.00  0.00     0.094 C 
ATOM     21  C   UNL     1      -8.324  -1.102 -29.248  1.00  0.00     0.016 C 
BRANCH  21  22
ATOM     22  C   UNL     1      -8.947  -0.342 -30.339  1.00  0.00    -0.021 A 
ATOM     23  C   UNL     1     -10.035  -0.849 -31.069  1.00  0.00     0.058 A 
ATOM     24  C   UNL     1      -8.474   0.949 -30.618  1.00  0.00     0.012 A 
ATOM     25  C   UNL     1     -10.609  -0.073 -32.071  1.00  0.00     0.157 A 
ATOM     26  C   UNL     1      -9.055   1.721 -31.628  1.00  0.00     0.051 A 
ATOM     27  C   UNL     1     -10.118   1.200 -32.348  1.00  0.00     0.157 A 
BRANCH  25  28
ATOM     28  O   UNL     1     -11.669  -0.518 -32.813  1.00  0.00    -0.504 OA
ATOM     29  H   UNL     1     -11.572  -0.180 -33.719  1.00  0.00     0.293 HD
ENDBRANCH  25  28
BRANCH  27  30
ATOM     30  O   UNL     1     -10.689   1.953 -33.332  1.00  0.00    -0.504 OA
ATOM     31  H   UNL     1     -11.194   1.312 -33.871  1.00  0.00     0.293 HD
ENDBRANCH  27  30
ENDBRANCH  21  22
ENDBRANCH   1  20
TORSDOF 11
ENDMDL
MODEL 3
REMARK VINA RESULT:      -7.9      4.375      6.858
REMARK SMILES O=C(/C=C/c1ccc(O)c(O)c1)O[C@@H]1C[C@](O)(C(=O)O)C[C@@H](O)[C@H]1O
REMARK SMILES IDX 2 1 1 2 13 3 14 4 21 5 22 6 16 7 24 8 15 9 23 10 17 12 18 14
REMARK SMILES IDX 19 15 20 16 25 18 3 20 4 21 5 22 12 23 6 24 10 25 7 26 8 27
REMARK SMILES IDX 11 28 9 30
REMARK H PARENT 23 11 17 13 20 17 25 19 11 29 9 31
ROOT
ATOM      1  C   UNL     1      -7.039  -2.434 -29.309  1.00  0.00     0.331 C 
ATOM      2  O   UNL     1      -6.104  -2.074 -28.607  1.00  0.00    -0.247 OA
ENDROOT
BRANCH   1   3
ATOM      3  O   UNL     1      -7.212  -2.124 -30.615  1.00  0.00    -0.456 OA
BRANCH   3   4
ATOM      4  C   UNL     1      -7.540  -0.746 -30.894  1.00  0.00     0.211 C 
ATOM      5  C   UNL     1      -7.951   1.380 -32.932  1.00  0.00     0.082 C 
ATOM      6  C   UNL     1      -6.670   1.324 -32.100  1.00  0.00     0.150 C 
ATOM      7  C   UNL     1      -9.133   0.727 -32.205  1.00  0.00     0.167 C 
ATOM      8  C   UNL     1      -6.345  -0.101 -31.619  1.00  0.00     0.184 C 
ATOM      9  C   UNL     1      -8.798  -0.698 -31.768  1.00  0.00     0.095 C 
BRANCH   6  10
ATOM     10  O   UNL     1      -6.766   2.184 -30.954  1.00  0.00    -0.390 OA
ATOM     11  H   UNL     1      -7.609   1.991 -30.493  1.00  0.00     0.211 HD
ENDBRANCH   6  10
BRANCH   7  12
ATOM     12  O   UNL     1      -9.442   1.528 -31.043  1.00  0.00    -0.378 OA
ATOM     13  H   UNL     1      -9.952   0.963 -30.424  1.00  0.00     0.212 HD
ENDBRANCH   7  12
BRANCH   7  14
ATOM     14  C   UNL     1     -10.353   0.740 -33.140  1.00  0.00     0.335 C 
ATOM     15  O   UNL     1     -10.697  -0.184 -33.858  1.00  0.00    -0.249 OA
BRANCH  14  16
ATOM     16  O   UNL     1     -11.007   1.928 -33.092  1.00  0.00    -0.479 OA
ATOM     17  H   UNL     1     -10.355   2.665 -33.107  1.00  0.00     0.296 HD
ENDBRANCH  14  16
ENDBRANCH   7  14
BRANCH   8  18
ATOM     18  O   UNL     1      -5.220  -0.039 -30.731  1.00  0.00    -0.387 OA
ATOM     19  H   UNL     1      -4.773  -0.908 -30.806  1.00  0.00     0.211 HD
ENDBRANCH   8  18
ENDBRANCH   3   4
ENDBRANCH   1   3
BRANCH   1  20
ATOM     20  C   UNL     1      -8.153  -3.246 -28.779  1.00  0.00     0.094 C 
ATOM     21  C   UNL     1      -9.175  -2.748 -28.066  1.00  0.00     0.016 C 
BRANCH  21  22
ATOM     22  C   UNL     1     -10.281  -3.571 -27.558  1.00  0.00    -0.021 A 
ATOM     23  C   UNL     1     -11.132  -3.121 -26.535  1.00  0.00     0.058 A 
ATOM     24  C   UNL     1     -10.522  -4.818 -28.155  1.00  0.00     0.012 A 
ATOM     25  C   UNL     1     -12.185  -3.928 -26.115  1.00  0.00     0.157 A 
ATOM     26  C   UNL     1     -11.581  -5.623 -27.725  1.00  0.00     0.051 A 
ATOM     27  C   UNL     1     -12.402  -5.169 -26.705  1.00  0.00     0.157 A 
BRANCH  25  28
ATOM     28  O   UNL     1     -13.042  -3.539 -25.122  1.00  0.00    -0.504 OA
ATOM     29  H   UNL     1     -12.751  -2.674 -24.788  1.00  0.00     0.293 HD
ENDBRANCH  25  28
BRANCH  27  30
ATOM     30  O   UNL     1     -13.438  -5.953 -26.286  1.00  0.00    -0.504 OA
ATOM     31  H   UNL     1     -13.824  -5.466 -25.530  1.00  0.00     0.293 HD
ENDBRANCH  27  30
ENDBRANCH  21  22
ENDBRANCH   1  20
TORSDOF 11
ENDMDL
MODEL 4
REMARK VINA RESULT:      -7.8      3.841      4.581
REMARK SMILES O=C(/C=C/c1ccc(O)c(O)c1)O[C@@H]1C[C@](O)(C(=O)O)C[C@@H](O)[C@H]1O
REMARK SMILES IDX 2 1 1 2 13 3 14 4 21 5 22 6 16 7 24 8 15 9 23 10 17 12 18 14
REMARK SMILES IDX 19 15 20 16 25 18 3 20 4 21 5 22 12 23 6 24 10 25 7 26 8 27
REMARK SMILES IDX 11 28 9 30
REMARK H PARENT 23 11 17 13 20 17 25 19 11 29 9 31
ROOT
ATOM      1  C   UNL     1      -7.765  -0.608 -30.958  1.00  0.00     0.331 C 
ATOM      2  O   UNL     1      -7.769  -0.525 -32.179  1.00  0.00    -0.247 OA
ENDROOT
BRANCH   1   3
ATOM      3  O   UNL     1      -6.996   0.124 -30.119  1.00  0.00    -0.456 OA
BRANCH   3   4
ATOM      4  C   UNL     1      -6.003  -0.614 -29.376  1.00  0.00     0.211 C 
ATOM      5  C   UNL     1      -3.796  -0.558 -27.383  1.00  0.00     0.082 C 
ATOM      6  C   UNL     1      -3.504  -0.681 -28.878  1.00  0.00     0.150 C 
ATOM      7  C   UNL     1      -5.185  -1.103 -27.026  1.00  0.00     0.167 C 
ATOM      8  C   UNL     1      -4.613  -0.063 -29.745  1.00  0.00     0.184 C 
ATOM      9  C   UNL     1      -6.273  -0.449 -27.876  1.00  0.00     0.095 C 
BRANCH   6  10
ATOM     10  O   UNL     1      -3.340  -2.057 -29.257  1.00  0.00    -0.390 OA
ATOM     11  H   UNL     1      -4.022  -2.588 -28.797  1.00  0.00     0.211 HD
ENDBRANCH   6  10
BRANCH   7  12
ATOM     12  O   UNL     1      -5.181  -2.529 -27.261  1.00  0.00    -0.378 OA
ATOM     13  H   UNL     1      -4.295  -2.865 -27.008  1.00  0.00     0.212 HD
ENDBRANCH   7  12
BRANCH   7  14
ATOM     14  C   UNL     1      -5.439  -0.859 -25.530  1.00  0.00     0.335 C 
ATOM     15  O   UNL     1      -6.032  -1.621 -24.785  1.00  0.00    -0.249 OA
BRANCH  14  16
ATOM     16  O   UNL     1      -4.938   0.336 -25.126  1.00  0.00    -0.479 OA
ATOM     17  H   UNL     1      -4.113   0.190 -24.608  1.00  0.00     0.296 HD
ENDBRANCH  14  16
ENDBRANCH   7  14
BRANCH   8  18
ATOM     18  O   UNL     1      -4.333  -0.350 -31.123  1.00  0.00    -0.387 OA
ATOM     19  H   UNL     1      -5.205  -0.470 -31.553  1.00  0.00     0.211 HD
ENDBRANCH   8  18
ENDBRANCH   3   4
ENDBRANCH   1   3
BRANCH   1  20
ATOM     20  C   UNL     1      -8.602  -1.586 -30.234  1.00  0.00     0.094 C 
ATOM     21  C   UNL     1      -8.518  -2.916 -30.397  1.00  0.00     0.016 C 
BRANCH  21  22
ATOM     22  C   UNL     1      -9.351  -3.873 -29.658  1.00  0.00    -0.021 A 
ATOM     23  C   UNL     1      -9.359  -3.920 -28.254  1.00  0.00     0.058 A 
ATOM     24  C   UNL     1     -10.204  -4.722 -30.380  1.00  0.00     0.012 A 
ATOM     25  C   UNL     1     -10.194  -4.824 -27.603  1.00  0.00     0.157 A 
ATOM     26  C   UNL     1     -11.037  -5.629 -29.717  1.00  0.00     0.051 A 
ATOM     27  C   UNL     1     -11.022  -5.672 -28.332  1.00  0.00     0.157 A 
BRANCH  25  28
ATOM     28  O   UNL     1     -10.240  -4.912 -26.239  1.00  0.00    -0.504 OA
ATOM     29  H   UNL     1      -9.727  -5.690 -25.965  1.00  0.00     0.293 HD
ENDBRANCH  25  28
BRANCH  27  30
ATOM     30  O   UNL     1     -11.837  -6.554 -27.684  1.00  0.00    -0.504 OA
ATOM     31  H   UNL     1     -11.230  -7.096 -27.142  1.00  0.00     0.293 HD
ENDBRANCH  27  30
ENDBRANCH  21  22
ENDBRANCH   1  20
TORSDOF 11
ENDMDL
MODEL 5
REMARK VINA RESULT:      -7.8      3.939      5.259
REMARK SMILES O=C(/C=C/c1ccc(O)c(O)c1)O[C@@H]1C[C@](O)(C(=O)O)C[C@@H](O)[C@H]1O
REMARK SMILES IDX 2 1 1 2 13 3 14 4 21 5 22 6 16 7 24 8 15 9 23 10 17 12 18 14
REMARK SMILES IDX 19 15 20 16 25 18 3 20 4 21 5 22 12 23 6 24 10 25 7 26 8 27
REMARK SMILES IDX 11 28 9 30
REMARK H PARENT 23 11 17 13 20 17 25 19 11 29 9 31
ROOT
ATOM      1  C   UNL     1      -6.948  -1.210 -30.868  1.00  0.00     0.331 C 
ATOM      2  O   UNL     1      -7.270  -0.541 -31.841  1.00  0.00    -0.247 OA
ENDROOT
BRANCH   1   3
ATOM      3  O   UNL     1      -5.696  -1.323 -30.366  1.00  0.00    -0.456 OA
BRANCH   3   4
ATOM      4  C   UNL     1      -5.420  -0.532 -29.191  1.00  0.00     0.211 C 
ATOM      5  C   UNL     1      -3.388   0.803 -27.476  1.00  0.00     0.082 C 
ATOM      6  C   UNL     1      -4.026  -0.521 -27.056  1.00  0.00     0.150 C 
ATOM      7  C   UNL     1      -4.303   1.606 -28.409  1.00  0.00     0.167 C 
ATOM      8  C   UNL     1      -4.506  -1.350 -28.260  1.00  0.00     0.184 C 
ATOM      9  C   UNL     1      -4.737   0.774 -29.614  1.00  0.00     0.095 C 
BRANCH   6  10
ATOM     10  O   UNL     1      -5.144  -0.296 -26.181  1.00  0.00    -0.390 OA
ATOM     11  H   UNL     1      -5.333  -1.129 -25.702  1.00  0.00     0.211 HD
ENDBRANCH   6  10
BRANCH   7  12
ATOM     12  O   UNL     1      -5.469   2.010 -27.656  1.00  0.00    -0.378 OA
ATOM     13  H   UNL     1      -5.733   1.249 -27.097  1.00  0.00     0.212 HD
ENDBRANCH   7  12
BRANCH   7  14
ATOM     14  C   UNL     1      -3.556   2.872 -28.860  1.00  0.00     0.335 C 
ATOM     15  O   UNL     1      -2.870   3.577 -28.139  1.00  0.00    -0.249 OA
BRANCH  14  16
ATOM     16  O   UNL     1      -3.767   3.135 -30.174  1.00  0.00    -0.479 OA
ATOM     17  H   UNL     1      -3.793   2.291 -30.680  1.00  0.00     0.296 HD
ENDBRANCH  14  16
ENDBRANCH   7  14
BRANCH   8  18
ATOM     18  O   UNL     1      -5.218  -2.496 -27.773  1.00  0.00    -0.387 OA
ATOM     19  H   UNL     1      -5.799  -2.781 -28.508  1.00  0.00     0.211 HD
ENDBRANCH   8  18
ENDBRANCH   3   4
ENDBRANCH   1   3
BRANCH   1  20
ATOM     20  C   UNL     1      -7.920  -2.038 -30.127  1.00  0.00     0.094 C 
ATOM     21  C   UNL     1      -8.174  -3.328 -30.399  1.00  0.00     0.016 C 
BRANCH  21  22
ATOM     22  C   UNL     1      -9.137  -4.137 -29.641  1.00  0.00    -0.021 A 
ATOM     23  C   UNL     1      -9.182  -4.116 -28.238  1.00  0.00     0.058 A 
ATOM     24  C   UNL     1     -10.073  -4.908 -30.348  1.00  0.00     0.012 A 
ATOM     25  C   UNL     1     -10.137  -4.877 -27.571  1.00  0.00     0.157 A 
ATOM     26  C   UNL     1     -11.028  -5.672 -29.669  1.00  0.00     0.051 A 
ATOM     27  C   UNL     1     -11.048  -5.650 -28.284  1.00  0.00     0.157 A 
BRANCH  25  28
ATOM     28  O   UNL     1     -10.224  -4.893 -26.205  1.00  0.00    -0.504 OA
ATOM     29  H   UNL     1     -10.949  -4.302 -25.938  1.00  0.00     0.293 HD
ENDBRANCH  25  28
BRANCH  27  30
ATOM     30  O   UNL     1     -11.982  -6.392 -27.620  1.00  0.00    -0.504 OA
ATOM     31  H   UNL     1     -12.838  -5.993 -27.873  1.00  0.00     0.293 HD
ENDBRANCH  27  30
ENDBRANCH  21  22
ENDBRANCH   1  20
TORSDOF 11
ENDMDL
MODEL 6
REMARK VINA RESULT:      -7.8      5.388      7.181
REMARK SMILES O=C(/C=C/c1ccc(O)c(O)c1)O[C@@H]1C[C@](O)(C(=O)O)C[C@@H](O)[C@H]1O
REMARK SMILES IDX 2 1 1 2 13 3 14 4 21 5 22 6 16 7 24 8 15 9 23 10 17 12 18 14
REMARK SMILES IDX 19 15 20 16 25 18 3 20 4 21 5 22 12 23 6 24 10 25 7 26 8 27
REMARK SMILES IDX 11 28 9 30
REMARK H PARENT 23 11 17 13 20 17 25 19 11 29 9 31
ROOT
ATOM      1  C   UNL     1     -10.076  -5.039 -29.947  1.00  0.00     0.331 C 
ATOM      2  O   UNL     1     -10.778  -5.866 -30.512  1.00  0.00    -0.247 OA
ENDROOT
BRANCH   1   3
ATOM      3  O   UNL     1      -9.686  -5.086 -28.651  1.00  0.00    -0.456 OA
BRANCH   3   4
ATOM      4  C   UNL     1     -10.712  -4.795 -27.678  1.00  0.00     0.211 C 
ATOM      5  C   UNL     1     -11.510  -4.702 -24.814  1.00  0.00     0.082 C 
ATOM      6  C   UNL     1     -11.985  -5.831 -25.728  1.00  0.00     0.150 C 
ATOM      7  C   UNL     1     -11.198  -3.423 -25.602  1.00  0.00     0.167 C 
ATOM      8  C   UNL     1     -11.019  -6.086 -26.898  1.00  0.00     0.184 C 
ATOM      9  C   UNL     1     -10.211  -3.695 -26.735  1.00  0.00     0.095 C 
BRANCH   6  10
ATOM     10  O   UNL     1     -13.286  -5.543 -26.264  1.00  0.00    -0.390 OA
ATOM     11  H   UNL     1     -13.584  -4.681 -25.905  1.00  0.00     0.211 HD
ENDBRANCH   6  10
BRANCH   7  12
ATOM     12  O   UNL     1     -12.438  -2.923 -26.152  1.00  0.00    -0.378 OA
ATOM     13  H   UNL     1     -12.386  -1.943 -26.145  1.00  0.00     0.212 HD
ENDBRANCH   7  12
BRANCH   7  14
ATOM     14  C   UNL     1     -10.640  -2.371 -24.630  1.00  0.00     0.335 C 
ATOM     15  O   UNL     1     -11.296  -1.499 -24.086  1.00  0.00    -0.249 OA
BRANCH  14  16
ATOM     16  O   UNL     1      -9.301  -2.511 -24.459  1.00  0.00    -0.479 OA
ATOM     17  H   UNL     1      -9.111  -2.753 -23.523  1.00  0.00     0.296 HD
ENDBRANCH  14  16
ENDBRANCH   7  14
BRANCH   8  18
ATOM     18  O   UNL     1     -11.610  -7.051 -27.779  1.00  0.00    -0.387 OA
ATOM     19  H   UNL     1     -12.379  -6.604 -28.188  1.00  0.00     0.211 HD
ENDBRANCH   8  18
ENDBRANCH   3   4
ENDBRANCH   1   3
BRANCH   1  20
ATOM     20  C   UNL     1      -9.588  -3.823 -30.629  1.00  0.00     0.094 C 
ATOM     21  C   UNL     1     -10.278  -2.674 -30.704  1.00  0.00     0.016 C 
BRANCH  21  22
ATOM     22  C   UNL     1      -9.770  -1.472 -31.378  1.00  0.00    -0.021 A 
ATOM     23  C   UNL     1     -10.629  -0.457 -31.833  1.00  0.00     0.058 A 
ATOM     24  C   UNL     1      -8.382  -1.312 -31.516  1.00  0.00     0.012 A 
ATOM     25  C   UNL     1     -10.091   0.677 -32.434  1.00  0.00     0.157 A 
ATOM     26  C   UNL     1      -7.852  -0.170 -32.124  1.00  0.00     0.051 A 
ATOM     27  C   UNL     1      -8.714   0.814 -32.580  1.00  0.00     0.157 A 
BRANCH  25  28
ATOM     28  O   UNL     1     -10.882   1.693 -32.896  1.00  0.00    -0.504 OA
ATOM     29  H   UNL     1     -11.403   1.360 -33.646  1.00  0.00     0.293 HD
ENDBRANCH  25  28
BRANCH  27  30
ATOM     30  O   UNL     1      -8.198   1.931 -33.171  1.00  0.00    -0.504 OA
ATOM     31  H   UNL     1      -7.364   2.099 -32.689  1.00  0.00     0.293 HD
ENDBRANCH  27  30
ENDBRANCH  21  22
ENDBRANCH   1  20
TORSDOF 11
ENDMDL
MODEL 7
REMARK VINA RESULT:      -7.8      3.685      4.808
REMARK SMILES O=C(/C=C/c1ccc(O)c(O)c1)O[C@@H]1C[C@](O)(C(=O)O)C[C@@H](O)[C@H]1O
REMARK SMILES IDX 2 1 1 2 13 3 14 4 21 5 22 6 16 7 24 8 15 9 23 10 17 12 18 14
REMARK SMILES IDX 19 15 20 16 25 18 3 20 4 21 5 22 12 23 6 24 10 25 7 26 8 27
REMARK SMILES IDX 11 28 9 30
REMARK H PARENT 23 11 17 13 20 17 25 19 11 29 9 31
ROOT
ATOM      1  C   UNL     1      -7.039  -0.354 -31.541  1.00  0.00     0.331 C 
ATOM      2  O   UNL     1      -7.873   0.366 -32.073  1.00  0.00    -0.247 OA
ENDROOT
BRANCH   1   3
ATOM      3  O   UNL     1      -5.697  -0.186 -31.597  1.00  0.00    -0.456 OA
BRANCH   3   4
ATOM      4  C   UNL     1      -5.043   0.056 -30.333  1.00  0.00     0.211 C 
ATOM      5  C   UNL     1      -2.769   1.299 -28.874  1.00  0.00     0.082 C 
ATOM      6  C   UNL     1      -2.802  -0.205 -29.146  1.00  0.00     0.150 C 
ATOM      7  C   UNL     1      -4.179   1.901 -28.824  1.00  0.00     0.167 C 
ATOM      8  C   UNL     1      -3.632  -0.557 -30.392  1.00  0.00     0.184 C 
ATOM      9  C   UNL     1      -4.970   1.567 -30.088  1.00  0.00     0.095 C 
BRANCH   6  10
ATOM     10  O   UNL     1      -3.341  -0.917 -28.021  1.00  0.00    -0.390 OA
ATOM     11  H   UNL     1      -2.783  -1.706 -27.858  1.00  0.00     0.211 HD
ENDBRANCH   6  10
BRANCH   7  12
ATOM     12  O   UNL     1      -4.858   1.357 -27.671  1.00  0.00    -0.378 OA
ATOM     13  H   UNL     1      -4.655   0.398 -27.637  1.00  0.00     0.212 HD
ENDBRANCH   7  12
BRANCH   7  14
ATOM     14  C   UNL     1      -4.057   3.423 -28.642  1.00  0.00     0.335 C 
ATOM     15  O   UNL     1      -3.054   4.079 -28.867  1.00  0.00    -0.249 OA
BRANCH  14  16
ATOM     16  O   UNL     1      -5.209   3.963 -28.171  1.00  0.00    -0.479 OA
ATOM     17  H   UNL     1      -5.925   3.845 -28.837  1.00  0.00     0.296 HD
ENDBRANCH  14  16
ENDBRANCH   7  14
BRANCH   8  18
ATOM     18  O   UNL     1      -3.732  -1.985 -30.488  1.00  0.00    -0.387 OA
ATOM     19  H   UNL     1      -2.859  -2.292 -30.812  1.00  0.00     0.211 HD
ENDBRANCH   8  18
ENDBRANCH   3   4
ENDBRANCH   1   3
BRANCH   1  20
ATOM     20  C   UNL     1      -7.416  -1.563 -30.780  1.00  0.00     0.094 C 
ATOM     21  C   UNL     1      -8.673  -1.867 -30.423  1.00  0.00     0.016 C 
BRANCH  21  22
ATOM     22  C   UNL     1      -9.028  -3.080 -29.676  1.00  0.00    -0.021 A 
ATOM     23  C   UNL     1      -9.428  -3.033 -28.330  1.00  0.00     0.058 A 
ATOM     24  C   UNL     1      -9.021  -4.312 -30.348  1.00  0.00     0.012 A 
ATOM     25  C   UNL     1      -9.786  -4.211 -27.680  1.00  0.00     0.157 A 
ATOM     26  C   UNL     1      -9.380  -5.490 -29.686  1.00  0.00     0.051 A 
ATOM     27  C   UNL     1      -9.757  -5.427 -28.354  1.00  0.00     0.157 A 
BRANCH  25  28
ATOM     28  O   UNL     1     -10.181  -4.221 -26.370  1.00  0.00    -0.504 OA
ATOM     29  H   UNL     1     -11.149  -4.303 -26.343  1.00  0.00     0.293 HD
ENDBRANCH  25  28
BRANCH  27  30
ATOM     30  O   UNL     1     -10.111  -6.576 -27.707  1.00  0.00    -0.504 OA
ATOM     31  H   UNL     1     -10.199  -7.241 -28.419  1.00  0.00     0.293 HD
ENDBRANCH  27  30
ENDBRANCH  21  22
ENDBRANCH   1  20
TORSDOF 11
ENDMDL
MODEL 8
REMARK VINA RESULT:      -7.7      4.762      7.845
REMARK SMILES O=C(/C=C/c1ccc(O)c(O)c1)O[C@@H]1C[C@](O)(C(=O)O)C[C@@H](O)[C@H]1O
REMARK SMILES IDX 2 1 1 2 13 3 14 4 21 5 22 6 16 7 24 8 15 9 23 10 17 12 18 14
REMARK SMILES IDX 19 15 20 16 25 18 3 20 4 21 5 22 12 23 6 24 10 25 7 26 8 27
REMARK SMILES IDX 11 28 9 30
REMARK H PARENT 23 11 17 13 20 17 25 19 11 29 9 31
ROOT
ATOM      1  C   UNL     1      -8.098  -3.267 -29.411  1.00  0.00     0.331 C 
ATOM      2  O   UNL     1      -7.984  -4.209 -30.183  1.00  0.00    -0.247 OA
ENDROOT
BRANCH   1   3
ATOM      3  O   UNL     1      -9.263  -2.779 -28.925  1.00  0.00    -0.456 OA
BRANCH   3   4
ATOM      4  C   UNL     1      -9.590  -3.166 -27.574  1.00  0.00     0.211 C 
ATOM      5  C   UNL     1     -11.656  -3.373 -25.445  1.00  0.00     0.082 C 
ATOM      6  C   UNL     1     -10.602  -2.268 -25.413  1.00  0.00     0.150 C 
ATOM      7  C   UNL     1     -11.165  -4.610 -26.209  1.00  0.00     0.167 C 
ATOM      8  C   UNL     1     -10.077  -1.917 -26.816  1.00  0.00     0.184 C 
ATOM      9  C   UNL     1     -10.682  -4.241 -27.610  1.00  0.00     0.095 C 
BRANCH   6  10
ATOM     10  O   UNL     1      -9.487  -2.647 -24.589  1.00  0.00    -0.390 OA
ATOM     11  H   UNL     1      -8.960  -3.317 -25.071  1.00  0.00     0.211 HD
ENDBRANCH   6  10
BRANCH   7  12
ATOM     12  O   UNL     1     -10.075  -5.195 -25.461  1.00  0.00    -0.378 OA
ATOM     13  H   UNL     1      -9.802  -4.541 -24.783  1.00  0.00     0.212 HD
ENDBRANCH   7  12
BRANCH   7  14
ATOM     14  C   UNL     1     -12.310  -5.633 -26.277  1.00  0.00     0.335 C 
ATOM     15  O   UNL     1     -13.125  -5.835 -25.392  1.00  0.00    -0.249 OA
BRANCH  14  16
ATOM     16  O   UNL     1     -12.299  -6.317 -27.448  1.00  0.00    -0.479 OA
ATOM     17  H   UNL     1     -13.148  -6.806 -27.553  1.00  0.00     0.296 HD
ENDBRANCH  14  16
ENDBRANCH   7  14
BRANCH   8  18
ATOM     18  O   UNL     1      -8.995  -0.985 -26.681  1.00  0.00    -0.387 OA
ATOM     19  H   UNL     1      -8.936  -0.781 -25.724  1.00  0.00     0.211 HD
ENDBRANCH   8  18
ENDBRANCH   3   4
ENDBRANCH   1   3
BRANCH   1  20
ATOM     20  C   UNL     1      -6.932  -2.496 -28.934  1.00  0.00     0.094 C 
ATOM     21  C   UNL     1      -5.888  -2.153 -29.706  1.00  0.00     0.016 C 
BRANCH  21  22
ATOM     22  C   UNL     1      -4.744  -1.376 -29.215  1.00  0.00    -0.021 A 
ATOM     23  C   UNL     1      -3.718  -0.943 -30.072  1.00  0.00     0.058 A 
ATOM     24  C   UNL     1      -4.709  -1.009 -27.860  1.00  0.00     0.012 A 
ATOM     25  C   UNL     1      -2.674  -0.179 -29.559  1.00  0.00     0.157 A 
ATOM     26  C   UNL     1      -3.654  -0.245 -27.354  1.00  0.00     0.051 A 
ATOM     27  C   UNL     1      -2.643   0.162 -28.211  1.00  0.00     0.157 A 
BRANCH  25  28
ATOM     28  O   UNL     1      -1.650   0.267 -30.349  1.00  0.00    -0.504 OA
ATOM     29  H   UNL     1      -1.984   0.995 -30.900  1.00  0.00     0.293 HD
ENDBRANCH  25  28
BRANCH  27  30
ATOM     30  O   UNL     1      -1.614   0.912 -27.719  1.00  0.00    -0.504 OA
ATOM     31  H   UNL     1      -1.224   1.340 -28.507  1.00  0.00     0.293 HD
ENDBRANCH  27  30
ENDBRANCH  21  22
ENDBRANCH   1  20
TORSDOF 11
ENDMDL
MODEL 9
REMARK VINA RESULT:      -7.7      2.759      7.098
REMARK SMILES O=C(/C=C/c1ccc(O)c(O)c1)O[C@@H]1C[C@](O)(C(=O)O)C[C@@H](O)[C@H]1O
REMARK SMILES IDX 2 1 1 2 13 3 14 4 21 5 22 6 16 7 24 8 15 9 23 10 17 12 18 14
REMARK SMILES IDX 19 15 20 16 25 18 3 20 4 21 5 22 12 23 6 24 10 25 7 26 8 27
REMARK SMILES IDX 11 28 9 30
REMARK H PARENT 23 11 17 13 20 17 25 19 11 29 9 31
ROOT
ATOM      1  C   UNL     1      -8.095  -1.291 -26.300  1.00  0.00     0.331 C 
ATOM      2  O   UNL     1      -8.019  -1.421 -25.086  1.00  0.00    -0.247 OA
ENDROOT
BRANCH   1   3
ATOM      3  O   UNL     1      -9.185  -1.558 -27.057  1.00  0.00    -0.456 OA
BRANCH   3   4
ATOM      4  C   UNL     1      -8.938  -1.736 -28.468  1.00  0.00     0.211 C 
ATOM      5  C   UNL     1     -10.044  -2.368 -31.156  1.00  0.00     0.082 C 
ATOM      6  C   UNL     1      -9.248  -3.408 -30.367  1.00  0.00     0.150 C 
ATOM      7  C   UNL     1      -9.658  -0.936 -30.764  1.00  0.00     0.167 C 
ATOM      8  C   UNL     1      -9.324  -3.177 -28.849  1.00  0.00     0.184 C 
ATOM      9  C   UNL     1      -9.775  -0.722 -29.255  1.00  0.00     0.095 C 
BRANCH   6  10
ATOM     10  O   UNL     1      -7.867  -3.403 -30.762  1.00  0.00    -0.390 OA
ATOM     11  H   UNL     1      -7.315  -3.491 -29.958  1.00  0.00     0.211 HD
ENDBRANCH   6  10
BRANCH   7  12
ATOM     12  O   UNL     1      -8.292  -0.711 -31.178  1.00  0.00    -0.378 OA
ATOM     13  H   UNL     1      -7.802  -0.371 -30.399  1.00  0.00     0.212 HD
ENDBRANCH   7  12
BRANCH   7  14
ATOM     14  C   UNL     1     -10.563   0.044 -31.527  1.00  0.00     0.335 C 
ATOM     15  O   UNL     1     -10.450   1.258 -31.516  1.00  0.00    -0.249 OA
BRANCH  14  16
ATOM     16  O   UNL     1     -11.537  -0.606 -32.212  1.00  0.00    -0.479 OA
ATOM     17  H   UNL     1     -11.142  -1.349 -32.724  1.00  0.00     0.296 HD
ENDBRANCH  14  16
ENDBRANCH   7  14
BRANCH   8  18
ATOM     18  O   UNL     1      -8.438  -4.100 -28.200  1.00  0.00    -0.387 OA
ATOM     19  H   UNL     1      -9.015  -4.745 -27.740  1.00  0.00     0.211 HD
ENDBRANCH   8  18
ENDBRANCH   3   4
ENDBRANCH   1   3
BRANCH   1  20
ATOM     20  C   UNL     1      -6.946  -0.851 -27.117  1.00  0.00     0.094 C 
ATOM     21  C   UNL     1      -5.722  -1.399 -27.052  1.00  0.00     0.016 C 
BRANCH  21  22
ATOM     22  C   UNL     1      -4.595  -0.954 -27.882  1.00  0.00    -0.021 A 
ATOM     23  C   UNL     1      -3.596  -0.103 -27.382  1.00  0.00     0.058 A 
ATOM     24  C   UNL     1      -4.489  -1.443 -29.194  1.00  0.00     0.012 A 
ATOM     25  C   UNL     1      -2.532   0.261 -28.203  1.00  0.00     0.157 A 
ATOM     26  C   UNL     1      -3.418  -1.070 -30.011  1.00  0.00     0.051 A 
ATOM     27  C   UNL     1      -2.449  -0.218 -29.506  1.00  0.00     0.157 A 
BRANCH  25  28
ATOM     28  O   UNL     1      -1.533   1.088 -27.767  1.00  0.00    -0.504 OA
ATOM     29  H   UNL     1      -0.938   1.270 -28.514  1.00  0.00     0.293 HD
ENDBRANCH  25  28
BRANCH  27  30
ATOM     30  O   UNL     1      -1.401   0.143 -30.302  1.00  0.00    -0.504 OA
ATOM     31  H   UNL     1      -1.223   1.075 -30.064  1.00  0.00     0.293 HD
ENDBRANCH  27  30
ENDBRANCH  21  22
ENDBRANCH   1  20
TORSDOF 11
ENDMDL
MODEL 10
REMARK VINA RESULT:      -7.6      3.758      6.765
REMARK SMILES O=C(/C=C/c1ccc(O)c(O)c1)O[C@@H]1C[C@](O)(C(=O)O)C[C@@H](O)[C@H]1O
REMARK SMILES IDX 2 1 1 2 13 3 14 4 21 5 22 6 16 7 24 8 15 9 23 10 17 12 18 14
REMARK SMILES IDX 19 15 20 16 25 18 3 20 4 21 5 22 12 23 6 24 10 25 7 26 8 27
REMARK SMILES IDX 11 28 9 30
REMARK H PARENT 23 11 17 13 20 17 25 19 11 29 9 31
ROOT
ATOM      1  C   UNL     1      -8.508  -0.707 -31.247  1.00  0.00     0.331 C 
ATOM      2  O   UNL     1      -8.501  -0.752 -32.470  1.00  0.00    -0.247 OA
ENDROOT
BRANCH   1   3
ATOM      3  O   UNL     1      -9.569  -0.979 -30.452  1.00  0.00    -0.456 OA
BRANCH   3   4
ATOM      4  C   UNL     1      -9.309  -1.866 -29.343  1.00  0.00     0.211 C 
ATOM      5  C   UNL     1     -10.396  -3.788 -27.350  1.00  0.00     0.082 C 
ATOM      6  C   UNL     1     -10.034  -2.358 -26.949  1.00  0.00     0.150 C 
ATOM      7  C   UNL     1      -9.586  -4.263 -28.563  1.00  0.00     0.167 C 
ATOM      8  C   UNL     1     -10.122  -1.377 -28.131  1.00  0.00     0.184 C 
ATOM      9  C   UNL     1      -9.718  -3.290 -29.734  1.00  0.00     0.095 C 
BRANCH   6  10
ATOM     10  O   UNL     1      -8.706  -2.300 -26.404  1.00  0.00    -0.390 OA
ATOM     11  H   UNL     1      -8.383  -3.216 -26.277  1.00  0.00     0.211 HD
ENDBRANCH   6  10
BRANCH   7  12
ATOM     12  O   UNL     1      -8.199  -4.357 -28.168  1.00  0.00    -0.378 OA
ATOM     13  H   UNL     1      -8.068  -3.745 -27.413  1.00  0.00     0.212 HD
ENDBRANCH   7  12
BRANCH   7  14
ATOM     14  C   UNL     1     -10.072  -5.666 -28.960  1.00  0.00     0.335 C 
ATOM     15  O   UNL     1     -10.641  -5.944 -30.003  1.00  0.00    -0.249 OA
BRANCH  14  16
ATOM     16  O   UNL     1      -9.812  -6.578 -27.990  1.00  0.00    -0.479 OA
ATOM     17  H   UNL     1      -8.879  -6.484 -27.689  1.00  0.00     0.296 HD
ENDBRANCH  14  16
ENDBRANCH   7  14
BRANCH   8  18
ATOM     18  O   UNL     1      -9.629  -0.100 -27.704  1.00  0.00    -0.387 OA
ATOM     19  H   UNL     1      -9.783  -0.063 -26.737  1.00  0.00     0.211 HD
ENDBRANCH   8  18
ENDBRANCH   3   4
ENDBRANCH   1   3
BRANCH   1  20
ATOM     20  C   UNL     1      -7.323  -0.294 -30.469  1.00  0.00     0.094 C 
ATOM     21  C   UNL     1      -6.058  -0.592 -30.807  1.00  0.00     0.016 C 
BRANCH  21  22
ATOM     22  C   UNL     1      -4.892  -0.161 -30.025  1.00  0.00    -0.021 A 
ATOM     23  C   UNL     1      -4.892   1.038 -29.293  1.00  0.00     0.058 A 
ATOM     24  C   UNL     1      -3.771  -1.003 -29.967  1.00  0.00     0.012 A 
ATOM     25  C   UNL     1      -3.772   1.382 -28.543  1.00  0.00     0.157 A 
ATOM     26  C   UNL     1      -2.649  -0.647 -29.212  1.00  0.00     0.051 A 
ATOM     27  C   UNL     1      -2.660   0.546 -28.508  1.00  0.00     0.157 A 
BRANCH  25  28
ATOM     28  O   UNL     1      -3.719   2.539 -27.813  1.00  0.00    -0.504 OA
ATOM     29  H   UNL     1      -2.796   2.843 -27.789  1.00  0.00     0.293 HD
ENDBRANCH  25  28
BRANCH  27  30
ATOM     30  O   UNL     1      -1.567   0.893 -27.767  1.00  0.00    -0.504 OA
ATOM     31  H   UNL     1      -1.308   0.067 -27.312  1.00  0.00     0.293 HD
ENDBRANCH  27  30
ENDBRANCH  21  22
ENDBRANCH   1  20
TORSDOF 11
ENDMDL
