MODEL 1
REMARK VINA RESULT:      -8.0      0.000      0.000
REMARK SMILES O=C(/C=C/c1ccc(O)c(O)c1)O[C@H](Cc1ccc(O)c(O)c1)C(=O)O
REMARK SMILES IDX 13 1 14 2 15 3 16 4 17 5 18 6 19 7 23 8 21 9 20 10 22 12
REMARK SMILES IDX 24 14 25 15 26 16 2 18 1 19 3 20 4 21 5 22 12 23 6 24 10 25
REMARK SMILES IDX 7 26 8 27 11 28 9 30
REMARK H PARENT 20 11 22 13 26 17 11 29 9 31
ROOT
ATOM      1  O   UNL     1      -8.264  -0.084 -32.311  1.00  0.00    -0.447 OA
ENDROOT
BRANCH   1   2
ATOM      2  C   UNL     1      -9.379   0.527 -31.637  1.00  0.00     0.290 C 
BRANCH   2   3
ATOM      3  C   UNL     1      -9.787  -0.380 -30.464  1.00  0.00     0.093 C 
BRANCH   3   4
ATOM      4  C   UNL     1      -8.617  -0.773 -29.586  1.00  0.00    -0.040 A 
ATOM      5  C   UNL     1      -8.055  -2.058 -29.688  1.00  0.00     0.008 A 
ATOM      6  C   UNL     1      -6.966  -2.430 -28.892  1.00  0.00     0.050 A 
ATOM      7  C   UNL     1      -6.438  -1.512 -27.995  1.00  0.00     0.157 A 
ATOM      8  C   UNL     1      -8.080   0.134 -28.661  1.00  0.00     0.054 A 
ATOM      9  C   UNL     1      -6.993  -0.240 -27.884  1.00  0.00     0.157 A 
BRANCH   7  10
ATOM     10  O   UNL     1      -5.369  -1.811 -27.196  1.00  0.00    -0.504 OA
ATOM     11  H   UNL     1      -5.302  -1.123 -26.511  1.00  0.00     0.293 HD
ENDBRANCH   7  10
BRANCH   9  12
ATOM     12  O   UNL     1      -6.467   0.659 -27.001  1.00  0.00    -0.504 OA
ATOM     13  H   UNL     1      -5.512   0.676 -27.210  1.00  0.00     0.293 HD
ENDBRANCH   9  12
ENDBRANCH   3   4
ENDBRANCH   2   3
BRANCH   2  14
ATOM     14  C   UNL     1     -10.577   0.725 -32.577  1.00  0.00     0.345 C 
ATOM     15  O   UNL     1     -11.280  -0.180 -33.005  1.00  0.00    -0.248 OA
BRANCH  14  16
ATOM     16  O   UNL     1     -10.816   2.019 -32.900  1.00  0.00    -0.478 OA
ATOM     17  H   UNL     1     -10.677   2.654 -32.156  1.00  0.00     0.296 HD
ENDBRANCH  14  16
ENDBRANCH   2  14
ENDBRANCH   1   2
BRANCH   1  18
ATOM     18  C   UNL     1      -7.402   0.781 -32.891  1.00  0.00     0.331 C 
ATOM     19  O   UNL     1      -7.464   1.157 -34.051  1.00  0.00    -0.247 OA
BRANCH  18  20
ATOM     20  C   UNL     1      -6.358   1.139 -31.917  1.00  0.00     0.094 C 
ATOM     21  C   UNL     1      -5.544   0.191 -31.431  1.00  0.00     0.016 C 
BRANCH  21  22
ATOM     22  C   UNL     1      -4.494   0.458 -30.442  1.00  0.00    -0.021 A 
ATOM     23  C   UNL     1      -4.453   1.660 -29.716  1.00  0.00     0.058 A 
ATOM     24  C   UNL     1      -3.546  -0.542 -30.170  1.00  0.00     0.012 A 
ATOM     25  C   UNL     1      -3.464   1.851 -28.757  1.00  0.00     0.157 A 
ATOM     26  C   UNL     1      -2.553  -0.340 -29.208  1.00  0.00     0.051 A 
ATOM     27  C   UNL     1      -2.520   0.857 -28.510  1.00  0.00     0.157 A 
BRANCH  25  28
ATOM     28  O   UNL     1      -3.381   3.000 -28.021  1.00  0.00    -0.504 OA
ATOM     29  H   UNL     1      -2.867   2.813 -27.217  1.00  0.00     0.293 HD
ENDBRANCH  25  28
BRANCH  27  30
ATOM     30  O   UNL     1      -1.555   1.052 -27.565  1.00  0.00    -0.504 OA
ATOM     31  H   UNL     1      -0.744   1.239 -28.078  1.00  0.00     0.293 HD
ENDBRANCH  27  30
ENDBRANCH  21  22
ENDBRANCH  18  20
ENDBRANCH   1  18
TORSDOF 12
ENDMDL
MODEL 2
REMARK VINA RESULT:      -7.8      2.213      6.110
REMARK SMILES O=C(/C=C/c1ccc(O)c(O)c1)O[C@H](Cc1ccc(O)c(O)c1)C(=O)O
REMARK SMILES IDX 13 1 14 2 15 3 16 4 17 5 18 6 19 7 23 8 21 9 20 10 22 12
REMARK SMILES IDX 24 14 25 15 26 16 2 18 1 19 3 20 4 21 5 22 12 23 6 24 10 25
REMARK SMILES IDX 7 26 8 27 11 28 9 30
REMARK H PARENT 20 11 22 13 26 17 11 29 9 31
ROOT
ATOM      1  O   UNL     1      -3.553   1.790 -30.008  1.00  0.00    -0.447 OA
ENDROOT
BRANCH   1   2
ATOM      2  C   UNL     1      -3.608   0.370 -29.785  1.00  0.00     0.290 C 
BRANCH   2   3
ATOM      3  C   UNL     1      -2.881   0.062 -28.464  1.00  0.00     0.093 C 
BRANCH   3   4
ATOM      4  C   UNL     1      -3.815  -0.417 -27.373  1.00  0.00    -0.040 A 
ATOM      5  C   UNL     1      -4.522  -1.622 -27.525  1.00  0.00     0.008 A 
ATOM      6  C   UNL     1      -5.379  -2.083 -26.519  1.00  0.00     0.050 A 
ATOM      7  C   UNL     1      -5.526  -1.335 -25.359  1.00  0.00     0.157 A 
ATOM      8  C   UNL     1      -3.990   0.333 -26.201  1.00  0.00     0.054 A 
ATOM      9  C   UNL     1      -4.834  -0.137 -25.205  1.00  0.00     0.157 A 
BRANCH   7  10
ATOM     10  O   UNL     1      -6.341  -1.735 -24.337  1.00  0.00    -0.504 OA
ATOM     11  H   UNL     1      -7.221  -1.345 -24.482  1.00  0.00     0.293 HD
ENDBRANCH   7  10
BRANCH   9  12
ATOM     12  O   UNL     1      -4.981   0.593 -24.060  1.00  0.00    -0.504 OA
ATOM     13  H   UNL     1      -4.067   0.775 -23.766  1.00  0.00     0.293 HD
ENDBRANCH   9  12
ENDBRANCH   3   4
ENDBRANCH   2   3
BRANCH   2  14
ATOM     14  C   UNL     1      -2.951  -0.415 -30.929  1.00  0.00     0.345 C 
ATOM     15  O   UNL     1      -3.260  -1.551 -31.259  1.00  0.00    -0.248 OA
BRANCH  14  16
ATOM     16  O   UNL     1      -1.977   0.268 -31.578  1.00  0.00    -0.478 OA
ATOM     17  H   UNL     1      -1.202  -0.285 -31.844  1.00  0.00     0.296 HD
ENDBRANCH  14  16
ENDBRANCH   2  14
ENDBRANCH   1   2
BRANCH   1  18
ATOM     18  C   UNL     1      -4.663   2.470 -29.642  1.00  0.00     0.331 C 
ATOM     19  O   UNL     1      -4.670   3.476 -28.950  1.00  0.00    -0.247 OA
BRANCH  18  20
ATOM     20  C   UNL     1      -5.847   1.768 -30.164  1.00  0.00     0.094 C 
ATOM     21  C   UNL     1      -6.425   2.187 -31.299  1.00  0.00     0.016 C 
BRANCH  21  22
ATOM     22  C   UNL     1      -7.620   1.559 -31.876  1.00  0.00    -0.021 A 
ATOM     23  C   UNL     1      -8.765   1.305 -31.103  1.00  0.00     0.058 A 
ATOM     24  C   UNL     1      -7.637   1.265 -33.249  1.00  0.00     0.012 A 
ATOM     25  C   UNL     1      -9.889   0.748 -31.704  1.00  0.00     0.157 A 
ATOM     26  C   UNL     1      -8.770   0.702 -33.842  1.00  0.00     0.051 A 
ATOM     27  C   UNL     1      -9.886   0.447 -33.063  1.00  0.00     0.157 A 
BRANCH  25  28
ATOM     28  O   UNL     1     -11.030   0.484 -30.999  1.00  0.00    -0.504 OA
ATOM     29  H   UNL     1     -11.709   1.130 -31.259  1.00  0.00     0.293 HD
ENDBRANCH  25  28
BRANCH  27  30
ATOM     30  O   UNL     1     -10.995  -0.096 -33.644  1.00  0.00    -0.504 OA
ATOM     31  H   UNL     1     -10.731  -1.011 -33.869  1.00  0.00     0.293 HD
ENDBRANCH  27  30
ENDBRANCH  21  22
ENDBRANCH  18  20
ENDBRANCH   1  18
TORSDOF 12
ENDMDL
MODEL 3
REMARK VINA RESULT:      -7.7      2.972      6.989
REMARK SMILES O=C(/C=C/c1ccc(O)c(O)c1)O[C@H](Cc1ccc(O)c(O)c1)C(=O)O
REMARK SMILES IDX 13 1 14 2 15 3 16 4 17 5 18 6 19 7 23 8 21 9 20 10 22 12
REMARK SMILES IDX 24 14 25 15 26 16 2 18 1 19 3 20 4 21 5 22 12 23 6 24 10 25
REMARK SMILES IDX 7 26 8 27 11 28 9 30
REMARK H PARENT 20 11 22 13 26 17 11 29 9 31
ROOT
ATOM      1  O   UNL     1      -6.042  -0.634 -30.762  1.00  0.00    -0.447 OA
ENDROOT
BRANCH   1   2
ATOM      2  C   UNL     1      -5.434   0.655 -30.573  1.00  0.00     0.290 C 
BRANCH   2   3
ATOM      3  C   UNL     1      -6.520   1.730 -30.749  1.00  0.00     0.093 C 
BRANCH   3   4
ATOM      4  C   UNL     1      -7.720   1.234 -31.528  1.00  0.00    -0.040 A 
ATOM      5  C   UNL     1      -7.657   1.113 -32.927  1.00  0.00     0.008 A 
ATOM      6  C   UNL     1      -8.754   0.645 -33.658  1.00  0.00     0.050 A 
ATOM      7  C   UNL     1      -9.916   0.293 -32.985  1.00  0.00     0.157 A 
ATOM      8  C   UNL     1      -8.910   0.890 -30.868  1.00  0.00     0.054 A 
ATOM      9  C   UNL     1      -9.989   0.416 -31.600  1.00  0.00     0.157 A 
BRANCH   7  10
ATOM     10  O   UNL     1     -11.019  -0.179 -33.641  1.00  0.00    -0.504 OA
ATOM     11  H   UNL     1     -11.527   0.584 -33.966  1.00  0.00     0.293 HD
ENDBRANCH   7  10
BRANCH   9  12
ATOM     12  O   UNL     1     -11.134   0.066 -30.944  1.00  0.00    -0.504 OA
ATOM     13  H   UNL     1     -11.815   0.027 -31.644  1.00  0.00     0.293 HD
ENDBRANCH   9  12
ENDBRANCH   3   4
ENDBRANCH   2   3
BRANCH   2  14
ATOM     14  C   UNL     1      -4.296   0.904 -31.574  1.00  0.00     0.345 C 
ATOM     15  O   UNL     1      -4.411   1.541 -32.611  1.00  0.00    -0.248 OA
BRANCH  14  16
ATOM     16  O   UNL     1      -3.111   0.357 -31.208  1.00  0.00    -0.478 OA
ATOM     17  H   UNL     1      -2.323   0.909 -31.436  1.00  0.00     0.296 HD
ENDBRANCH  14  16
ENDBRANCH   2  14
ENDBRANCH   1   2
BRANCH   1  18
ATOM     18  C   UNL     1      -5.582  -1.610 -29.947  1.00  0.00     0.331 C 
ATOM     19  O   UNL     1      -4.404  -1.889 -29.786  1.00  0.00    -0.247 OA
BRANCH  18  20
ATOM     20  C   UNL     1      -6.729  -2.305 -29.340  1.00  0.00     0.094 C 
ATOM     21  C   UNL     1      -7.528  -3.066 -30.103  1.00  0.00     0.016 C 
BRANCH  21  22
ATOM     22  C   UNL     1      -8.704  -3.774 -29.583  1.00  0.00    -0.021 A 
ATOM     23  C   UNL     1      -9.504  -4.579 -30.410  1.00  0.00     0.058 A 
ATOM     24  C   UNL     1      -8.993  -3.695 -28.211  1.00  0.00     0.012 A 
ATOM     25  C   UNL     1     -10.583  -5.266 -29.864  1.00  0.00     0.157 A 
ATOM     26  C   UNL     1     -10.082  -4.385 -27.672  1.00  0.00     0.051 A 
ATOM     27  C   UNL     1     -10.869  -5.165 -28.505  1.00  0.00     0.157 A 
BRANCH  25  28
ATOM     28  O   UNL     1     -11.393  -6.064 -30.623  1.00  0.00    -0.504 OA
ATOM     29  H   UNL     1     -11.539  -6.897 -30.144  1.00  0.00     0.293 HD
ENDBRANCH  25  28
BRANCH  27  30
ATOM     30  O   UNL     1     -11.927  -5.846 -27.977  1.00  0.00    -0.504 OA
ATOM     31  H   UNL     1     -12.653  -5.190 -27.954  1.00  0.00     0.293 HD
ENDBRANCH  27  30
ENDBRANCH  21  22
ENDBRANCH  18  20
ENDBRANCH   1  18
TORSDOF 12
ENDMDL
MODEL 4
REMARK VINA RESULT:      -7.6      2.305      3.905
REMARK SMILES O=C(/C=C/c1ccc(O)c(O)c1)O[C@H](Cc1ccc(O)c(O)c1)C(=O)O
REMARK SMILES IDX 13 1 14 2 15 3 16 4 17 5 18 6 19 7 23 8 21 9 20 10 22 12
REMARK SMILES IDX 24 14 25 15 26 16 2 18 1 19 3 20 4 21 5 22 12 23 6 24 10 25
REMARK SMILES IDX 7 26 8 27 11 28 9 30
REMARK H PARENT 20 11 22 13 26 17 11 29 9 31
ROOT
ATOM      1  O   UNL     1      -6.402  -0.584 -31.507  1.00  0.00    -0.447 OA
ENDROOT
BRANCH   1   2
ATOM      2  C   UNL     1      -6.879  -1.271 -30.338  1.00  0.00     0.290 C 
BRANCH   2   3
ATOM      3  C   UNL     1      -5.728  -2.126 -29.779  1.00  0.00     0.093 C 
BRANCH   3   4
ATOM      4  C   UNL     1      -4.611  -1.295 -29.184  1.00  0.00    -0.040 A 
ATOM      5  C   UNL     1      -3.421  -1.088 -29.904  1.00  0.00     0.008 A 
ATOM      6  C   UNL     1      -2.386  -0.312 -29.372  1.00  0.00     0.050 A 
ATOM      7  C   UNL     1      -2.544   0.260 -28.117  1.00  0.00     0.157 A 
ATOM      8  C   UNL     1      -4.744  -0.723 -27.910  1.00  0.00     0.054 A 
ATOM      9  C   UNL     1      -3.716   0.054 -27.395  1.00  0.00     0.157 A 
BRANCH   7  10
ATOM     10  O   UNL     1      -1.573   1.035 -27.546  1.00  0.00    -0.504 OA
ATOM     11  H   UNL     1      -1.979   1.543 -26.822  1.00  0.00     0.293 HD
ENDBRANCH   7  10
BRANCH   9  12
ATOM     12  O   UNL     1      -3.866   0.621 -26.162  1.00  0.00    -0.504 OA
ATOM     13  H   UNL     1      -4.533   1.323 -26.295  1.00  0.00     0.293 HD
ENDBRANCH   9  12
ENDBRANCH   3   4
ENDBRANCH   2   3
BRANCH   2  14
ATOM     14  C   UNL     1      -8.083  -2.171 -30.653  1.00  0.00     0.345 C 
ATOM     15  O   UNL     1      -8.589  -2.956 -29.863  1.00  0.00    -0.248 OA
BRANCH  14  16
ATOM     16  O   UNL     1      -8.567  -2.022 -31.910  1.00  0.00    -0.478 OA
ATOM     17  H   UNL     1      -8.153  -1.283 -32.418  1.00  0.00     0.296 HD
ENDBRANCH  14  16
ENDBRANCH   2  14
ENDBRANCH   1   2
BRANCH   1  18
ATOM     18  C   UNL     1      -6.773   0.712 -31.601  1.00  0.00     0.331 C 
ATOM     19  O   UNL     1      -7.860   1.102 -31.997  1.00  0.00    -0.247 OA
BRANCH  18  20
ATOM     20  C   UNL     1      -5.638   1.563 -31.206  1.00  0.00     0.094 C 
ATOM     21  C   UNL     1      -5.844   2.627 -30.416  1.00  0.00     0.016 C 
BRANCH  21  22
ATOM     22  C   UNL     1      -4.774   3.538 -29.994  1.00  0.00    -0.021 A 
ATOM     23  C   UNL     1      -4.385   4.634 -30.783  1.00  0.00     0.058 A 
ATOM     24  C   UNL     1      -4.171   3.344 -28.741  1.00  0.00     0.012 A 
ATOM     25  C   UNL     1      -3.395   5.496 -30.321  1.00  0.00     0.157 A 
ATOM     26  C   UNL     1      -3.174   4.212 -28.288  1.00  0.00     0.051 A 
ATOM     27  C   UNL     1      -2.795   5.281 -29.084  1.00  0.00     0.157 A 
BRANCH  25  28
ATOM     28  O   UNL     1      -2.982   6.578 -31.047  1.00  0.00    -0.504 OA
ATOM     29  H   UNL     1      -2.585   7.223 -30.436  1.00  0.00     0.293 HD
ENDBRANCH  25  28
BRANCH  27  30
ATOM     30  O   UNL     1      -1.827   6.134 -28.637  1.00  0.00    -0.504 OA
ATOM     31  H   UNL     1      -1.095   6.031 -29.278  1.00  0.00     0.293 HD
ENDBRANCH  27  30
ENDBRANCH  21  22
ENDBRANCH  18  20
ENDBRANCH   1  18
TORSDOF 12
ENDMDL
MODEL 5
REMARK VINA RESULT:      -7.5      2.705      6.808
REMARK SMILES O=C(/C=C/c1ccc(O)c(O)c1)O[C@H](Cc1ccc(O)c(O)c1)C(=O)O
REMARK SMILES IDX 13 1 14 2 15 3 16 4 17 5 18 6 19 7 23 8 21 9 20 10 22 12
REMARK SMILES IDX 24 14 25 15 26 16 2 18 1 19 3 20 4 21 5 22 12 23 6 24 10 25
REMARK SMILES IDX 7 26 8 27 11 28 9 30
REMARK H PARENT 20 11 22 13 26 17 11 29 9 31
ROOT
ATOM      1  O   UNL     1      -5.095  -0.768 -30.911  1.00  0.00    -0.447 OA
ENDROOT
BRANCH   1   2
ATOM      2  C   UNL     1      -5.743   0.497 -30.694  1.00  0.00     0.290 C 
BRANCH   2   3
ATOM      3  C   UNL     1      -6.323   0.978 -32.036  1.00  0.00     0.093 C 
BRANCH   3   4
ATOM      4  C   UNL     1      -7.765   0.562 -32.238  1.00  0.00    -0.040 A 
ATOM      5  C   UNL     1      -8.147  -0.779 -32.065  1.00  0.00     0.008 A 
ATOM      6  C   UNL     1      -9.478  -1.174 -32.237  1.00  0.00     0.050 A 
ATOM      7  C   UNL     1     -10.428  -0.222 -32.580  1.00  0.00     0.157 A 
ATOM      8  C   UNL     1      -8.737   1.506 -32.602  1.00  0.00     0.054 A 
ATOM      9  C   UNL     1     -10.056   1.107 -32.760  1.00  0.00     0.157 A 
BRANCH   7  10
ATOM     10  O   UNL     1     -11.746  -0.543 -32.754  1.00  0.00    -0.504 OA
ATOM     11  H   UNL     1     -12.081  -0.909 -31.917  1.00  0.00     0.293 HD
ENDBRANCH   7  10
BRANCH   9  12
ATOM     12  O   UNL     1     -10.997   2.039 -33.095  1.00  0.00    -0.504 OA
ATOM     13  H   UNL     1     -11.740   1.866 -32.484  1.00  0.00     0.293 HD
ENDBRANCH   9  12
ENDBRANCH   3   4
ENDBRANCH   2   3
BRANCH   2  14
ATOM     14  C   UNL     1      -4.771   1.552 -30.146  1.00  0.00     0.345 C 
ATOM     15  O   UNL     1      -4.519   1.714 -28.960  1.00  0.00    -0.248 OA
BRANCH  14  16
ATOM     16  O   UNL     1      -4.183   2.310 -31.103  1.00  0.00    -0.478 OA
ATOM     17  H   UNL     1      -4.181   1.897 -32.002  1.00  0.00     0.296 HD
ENDBRANCH  14  16
ENDBRANCH   2  14
ENDBRANCH   1   2
BRANCH   1  18
ATOM     18  C   UNL     1      -4.877  -1.499 -29.795  1.00  0.00     0.331 C 
ATOM     19  O   UNL     1      -3.776  -1.748 -29.327  1.00  0.00    -0.247 OA
BRANCH  18  20
ATOM     20  C   UNL     1      -6.168  -1.984 -29.282  1.00  0.00     0.094 C 
ATOM     21  C   UNL     1      -6.759  -3.042 -29.855  1.00  0.00     0.016 C 
BRANCH  21  22
ATOM     22  C   UNL     1      -8.056  -3.575 -29.421  1.00  0.00    -0.021 A 
ATOM     23  C   UNL     1      -8.755  -4.526 -30.183  1.00  0.00     0.058 A 
ATOM     24  C   UNL     1      -8.575  -3.173 -28.179  1.00  0.00     0.012 A 
ATOM     25  C   UNL     1      -9.959  -5.035 -29.709  1.00  0.00     0.157 A 
ATOM     26  C   UNL     1      -9.788  -3.687 -27.714  1.00  0.00     0.051 A 
ATOM     27  C   UNL     1     -10.470  -4.614 -28.485  1.00  0.00     0.157 A 
BRANCH  25  28
ATOM     28  O   UNL     1     -10.678  -5.963 -30.410  1.00  0.00    -0.504 OA
ATOM     29  H   UNL     1     -11.017  -5.542 -31.219  1.00  0.00     0.293 HD
ENDBRANCH  25  28
BRANCH  27  30
ATOM     30  O   UNL     1     -11.651  -5.123 -28.026  1.00  0.00    -0.504 OA
ATOM     31  H   UNL     1     -12.325  -4.475 -28.314  1.00  0.00     0.293 HD
ENDBRANCH  27  30
ENDBRANCH  21  22
ENDBRANCH  18  20
ENDBRANCH   1  18
TORSDOF 12
ENDMDL
MODEL 6
REMARK VINA RESULT:      -7.5      2.089      6.962
REMARK SMILES O=C(/C=C/c1ccc(O)c(O)c1)O[C@H](Cc1ccc(O)c(O)c1)C(=O)O
REMARK SMILES IDX 13 1 14 2 15 3 16 4 17 5 18 6 19 7 23 8 21 9 20 10 22 12
REMARK SMILES IDX 24 14 25 15 26 16 2 18 1 19 3 20 4 21 5 22 12 23 6 24 10 25
REMARK SMILES IDX 7 26 8 27 11 28 9 30
REMARK H PARENT 20 11 22 13 26 17 11 29 9 31
ROOT
ATOM      1  O   UNL     1      -6.824  -1.875 -27.015  1.00  0.00    -0.447 OA
ENDROOT
BRANCH   1   2
ATOM      2  C   UNL     1      -5.801  -0.925 -26.667  1.00  0.00     0.290 C 
BRANCH   2   3
ATOM      3  C   UNL     1      -4.514  -1.307 -27.419  1.00  0.00     0.093 C 
BRANCH   3   4
ATOM      4  C   UNL     1      -4.373  -0.592 -28.747  1.00  0.00    -0.040 A 
ATOM      5  C   UNL     1      -4.991   0.653 -28.951  1.00  0.00     0.008 A 
ATOM      6  C   UNL     1      -4.858   1.330 -30.168  1.00  0.00     0.050 A 
ATOM      7  C   UNL     1      -4.101   0.759 -31.182  1.00  0.00     0.157 A 
ATOM      8  C   UNL     1      -3.626  -1.161 -29.790  1.00  0.00     0.054 A 
ATOM      9  C   UNL     1      -3.491  -0.478 -30.990  1.00  0.00     0.157 A 
BRANCH   7  10
ATOM     10  O   UNL     1      -3.926   1.373 -32.391  1.00  0.00    -0.504 OA
ATOM     11  H   UNL     1      -4.565   2.105 -32.453  1.00  0.00     0.293 HD
ENDBRANCH   7  10
BRANCH   9  12
ATOM     12  O   UNL     1      -2.745  -1.033 -31.990  1.00  0.00    -0.504 OA
ATOM     13  H   UNL     1      -3.395  -1.253 -32.686  1.00  0.00     0.293 HD
ENDBRANCH   9  12
ENDBRANCH   3   4
ENDBRANCH   2   3
BRANCH   2  14
ATOM     14  C   UNL     1      -5.528  -0.906 -25.156  1.00  0.00     0.345 C 
ATOM     15  O   UNL     1      -4.954  -0.002 -24.566  1.00  0.00    -0.248 OA
BRANCH  14  16
ATOM     16  O   UNL     1      -5.994  -1.995 -24.498  1.00  0.00    -0.478 OA
ATOM     17  H   UNL     1      -6.414  -1.792 -23.627  1.00  0.00     0.296 HD
ENDBRANCH  14  16
ENDBRANCH   2  14
ENDBRANCH   1   2
BRANCH   1  18
ATOM     18  C   UNL     1      -8.091  -1.456 -26.800  1.00  0.00     0.331 C 
ATOM     19  O   UNL     1      -8.791  -1.802 -25.861  1.00  0.00    -0.247 OA
BRANCH  18  20
ATOM     20  C   UNL     1      -8.496  -0.573 -27.906  1.00  0.00     0.094 C 
ATOM     21  C   UNL     1      -8.704  -1.086 -29.127  1.00  0.00     0.016 C 
BRANCH  21  22
ATOM     22  C   UNL     1      -9.088  -0.274 -30.288  1.00  0.00    -0.021 A 
ATOM     23  C   UNL     1     -10.126  -0.665 -31.151  1.00  0.00     0.058 A 
ATOM     24  C   UNL     1      -8.444   0.956 -30.500  1.00  0.00     0.012 A 
ATOM     25  C   UNL     1     -10.484   0.159 -32.213  1.00  0.00     0.157 A 
ATOM     26  C   UNL     1      -8.807   1.774 -31.573  1.00  0.00     0.051 A 
ATOM     27  C   UNL     1      -9.825   1.367 -32.421  1.00  0.00     0.157 A 
BRANCH  25  28
ATOM     28  O   UNL     1     -11.487  -0.173 -33.080  1.00  0.00    -0.504 OA
ATOM     29  H   UNL     1     -11.097  -0.646 -33.834  1.00  0.00     0.293 HD
ENDBRANCH  25  28
BRANCH  27  30
ATOM     30  O   UNL     1     -10.185   2.171 -33.463  1.00  0.00    -0.504 OA
ATOM     31  H   UNL     1      -9.725   1.788 -34.238  1.00  0.00     0.293 HD
ENDBRANCH  27  30
ENDBRANCH  21  22
ENDBRANCH  18  20
ENDBRANCH   1  18
TORSDOF 12
ENDMDL
MODEL 7
REMARK VINA RESULT:      -7.5      1.757      6.157
REMARK SMILES O=C(/C=C/c1ccc(O)c(O)c1)O[C@H](Cc1ccc(O)c(O)c1)C(=O)O
REMARK SMILES IDX 13 1 14 2 15 3 16 4 17 5 18 6 19 7 23 8 21 9 20 10 22 12
REMARK SMILES IDX 24 14 25 15 26 16 2 18 1 19 3 20 4 21 5 22 12 23 6 24 10 25
REMARK SMILES IDX 7 26 8 27 11 28 9 30
REMARK H PARENT 20 11 22 13 26 17 11 29 9 31
ROOT
ATOM      1  O   UNL     1      -4.284   1.761 -28.466  1.00  0.00    -0.447 OA
ENDROOT
BRANCH   1   2
ATOM      2  C   UNL     1      -3.711   0.504 -28.867  1.00  0.00     0.290 C 
BRANCH   2   3
ATOM      3  C   UNL     1      -4.220  -0.585 -27.906  1.00  0.00     0.093 C 
BRANCH   3   4
ATOM      4  C   UNL     1      -5.527  -1.203 -28.355  1.00  0.00    -0.040 A 
ATOM      5  C   UNL     1      -5.702  -1.599 -29.692  1.00  0.00     0.008 A 
ATOM      6  C   UNL     1      -6.900  -2.183 -30.117  1.00  0.00     0.050 A 
ATOM      7  C   UNL     1      -7.924  -2.373 -29.199  1.00  0.00     0.157 A 
ATOM      8  C   UNL     1      -6.581  -1.388 -27.447  1.00  0.00     0.054 A 
ATOM      9  C   UNL     1      -7.761  -1.978 -27.875  1.00  0.00     0.157 A 
BRANCH   7  10
ATOM     10  O   UNL     1      -9.115  -2.946 -29.550  1.00  0.00    -0.504 OA
ATOM     11  H   UNL     1      -9.052  -3.230 -30.479  1.00  0.00     0.293 HD
ENDBRANCH   7  10
BRANCH   9  12
ATOM     12  O   UNL     1      -8.771  -2.170 -26.977  1.00  0.00    -0.504 OA
ATOM     13  H   UNL     1      -8.515  -2.978 -26.489  1.00  0.00     0.293 HD
ENDBRANCH   9  12
ENDBRANCH   3   4
ENDBRANCH   2   3
BRANCH   2  14
ATOM     14  C   UNL     1      -2.176   0.540 -28.837  1.00  0.00     0.345 C 
ATOM     15  O   UNL     1      -1.456   0.212 -29.770  1.00  0.00    -0.248 OA
BRANCH  14  16
ATOM     16  O   UNL     1      -1.657   0.986 -27.667  1.00  0.00    -0.478 OA
ATOM     17  H   UNL     1      -2.304   1.466 -27.095  1.00  0.00     0.296 HD
ENDBRANCH  14  16
ENDBRANCH   2  14
ENDBRANCH   1   2
BRANCH   1  18
ATOM     18  C   UNL     1      -4.734   2.534 -29.480  1.00  0.00     0.331 C 
ATOM     19  O   UNL     1      -4.183   3.546 -29.884  1.00  0.00    -0.247 OA
BRANCH  18  20
ATOM     20  C   UNL     1      -6.012   1.988 -29.965  1.00  0.00     0.094 C 
ATOM     21  C   UNL     1      -6.204   1.806 -31.279  1.00  0.00     0.016 C 
BRANCH  21  22
ATOM     22  C   UNL     1      -7.455   1.289 -31.848  1.00  0.00    -0.021 A 
ATOM     23  C   UNL     1      -8.601   1.099 -31.058  1.00  0.00     0.058 A 
ATOM     24  C   UNL     1      -7.522   1.042 -33.229  1.00  0.00     0.012 A 
ATOM     25  C   UNL     1      -9.776   0.648 -31.650  1.00  0.00     0.157 A 
ATOM     26  C   UNL     1      -8.706   0.585 -33.813  1.00  0.00     0.051 A 
ATOM     27  C   UNL     1      -9.824   0.391 -33.017  1.00  0.00     0.157 A 
BRANCH  25  28
ATOM     28  O   UNL     1     -10.920   0.449 -30.928  1.00  0.00    -0.504 OA
ATOM     29  H   UNL     1     -11.659   0.869 -31.401  1.00  0.00     0.293 HD
ENDBRANCH  25  28
BRANCH  27  30
ATOM     30  O   UNL     1     -10.982  -0.047 -33.590  1.00  0.00    -0.504 OA
ATOM     31  H   UNL     1     -10.694  -0.706 -34.253  1.00  0.00     0.293 HD
ENDBRANCH  27  30
ENDBRANCH  21  22
ENDBRANCH  18  20
ENDBRANCH   1  18
TORSDOF 12
ENDMDL
MODEL 8
REMARK VINA RESULT:      -7.5      2.150      2.856
REMARK SMILES O=C(/C=C/c1ccc(O)c(O)c1)O[C@H](Cc1ccc(O)c(O)c1)C(=O)O
REMARK SMILES IDX 13 1 14 2 15 3 16 4 17 5 18 6 19 7 23 8 21 9 20 10 22 12
REMARK SMILES IDX 24 14 25 15 26 16 2 18 1 19 3 20 4 21 5 22 12 23 6 24 10 25
REMARK SMILES IDX 7 26 8 27 11 28 9 30
REMARK H PARENT 20 11 22 13 26 17 11 29 9 31
ROOT
ATOM      1  O   UNL     1      -7.958   0.127 -33.056  1.00  0.00    -0.447 OA
ENDROOT
BRANCH   1   2
ATOM      2  C   UNL     1      -9.140   0.108 -32.237  1.00  0.00     0.290 C 
BRANCH   2   3
ATOM      3  C   UNL     1      -9.462  -1.356 -31.891  1.00  0.00     0.093 C 
BRANCH   3   4
ATOM      4  C   UNL     1      -9.359  -1.649 -30.409  1.00  0.00    -0.040 A 
ATOM      5  C   UNL     1      -9.764  -0.689 -29.466  1.00  0.00     0.008 A 
ATOM      6  C   UNL     1      -9.686  -0.951 -28.095  1.00  0.00     0.050 A 
ATOM      7  C   UNL     1      -9.204  -2.181 -27.666  1.00  0.00     0.157 A 
ATOM      8  C   UNL     1      -8.858  -2.879 -29.956  1.00  0.00     0.054 A 
ATOM      9  C   UNL     1      -8.794  -3.135 -28.594  1.00  0.00     0.157 A 
BRANCH   7  10
ATOM     10  O   UNL     1      -9.111  -2.501 -26.340  1.00  0.00    -0.504 OA
ATOM     11  H   UNL     1      -9.229  -3.463 -26.253  1.00  0.00     0.293 HD
ENDBRANCH   7  10
BRANCH   9  12
ATOM     12  O   UNL     1      -8.323  -4.343 -28.166  1.00  0.00    -0.504 OA
ATOM     13  H   UNL     1      -7.357  -4.215 -28.086  1.00  0.00     0.293 HD
ENDBRANCH   9  12
ENDBRANCH   3   4
ENDBRANCH   2   3
BRANCH   2  14
ATOM     14  C   UNL     1     -10.341   0.746 -32.950  1.00  0.00     0.345 C 
ATOM     15  O   UNL     1     -11.289   0.122 -33.405  1.00  0.00    -0.248 OA
BRANCH  14  16
ATOM     16  O   UNL     1     -10.278   2.097 -33.033  1.00  0.00    -0.478 OA
ATOM     17  H   UNL     1      -9.483   2.492 -32.600  1.00  0.00     0.296 HD
ENDBRANCH  14  16
ENDBRANCH   2  14
ENDBRANCH   1   2
BRANCH   1  18
ATOM     18  C   UNL     1      -6.954   0.907 -32.596  1.00  0.00     0.331 C 
ATOM     19  O   UNL     1      -6.270   1.645 -33.288  1.00  0.00    -0.247 OA
BRANCH  18  20
ATOM     20  C   UNL     1      -6.792   0.675 -31.151  1.00  0.00     0.094 C 
ATOM     21  C   UNL     1      -6.041  -0.349 -30.720  1.00  0.00     0.016 C 
BRANCH  21  22
ATOM     22  C   UNL     1      -5.846  -0.664 -29.300  1.00  0.00    -0.021 A 
ATOM     23  C   UNL     1      -6.199   0.244 -28.288  1.00  0.00     0.058 A 
ATOM     24  C   UNL     1      -5.354  -1.931 -28.946  1.00  0.00     0.012 A 
ATOM     25  C   UNL     1      -6.036  -0.116 -26.954  1.00  0.00     0.157 A 
ATOM     26  C   UNL     1      -5.190  -2.282 -27.604  1.00  0.00     0.051 A 
ATOM     27  C   UNL     1      -5.532  -1.370 -26.619  1.00  0.00     0.157 A 
BRANCH  25  28
ATOM     28  O   UNL     1      -6.367   0.728 -25.931  1.00  0.00    -0.504 OA
ATOM     29  H   UNL     1      -5.960   1.595 -26.105  1.00  0.00     0.293 HD
ENDBRANCH  25  28
BRANCH  27  30
ATOM     30  O   UNL     1      -5.380  -1.716 -25.308  1.00  0.00    -0.504 OA
ATOM     31  H   UNL     1      -4.979  -2.608 -25.335  1.00  0.00     0.293 HD
ENDBRANCH  27  30
ENDBRANCH  21  22
ENDBRANCH  18  20
ENDBRANCH   1  18
TORSDOF 12
ENDMDL
MODEL 9
REMARK VINA RESULT:      -7.4      3.367      6.809
REMARK SMILES O=C(/C=C/c1ccc(O)c(O)c1)O[C@H](Cc1ccc(O)c(O)c1)C(=O)O
REMARK SMILES IDX 13 1 14 2 15 3 16 4 17 5 18 6 19 7 23 8 21 9 20 10 22 12
REMARK SMILES IDX 24 14 25 15 26 16 2 18 1 19 3 20 4 21 5 22 12 23 6 24 10 25
REMARK SMILES IDX 7 26 8 27 11 28 9 30
REMARK H PARENT 20 11 22 13 26 17 11 29 9 31
ROOT
ATOM      1  O   UNL     1      -5.805  -0.811 -29.822  1.00  0.00    -0.447 OA
ENDROOT
BRANCH   1   2
ATOM      2  C   UNL     1      -4.582  -1.356 -30.346  1.00  0.00     0.290 C 
BRANCH   2   3
ATOM      3  C   UNL     1      -3.791  -1.971 -29.178  1.00  0.00     0.093 C 
BRANCH   3   4
ATOM      4  C   UNL     1      -4.098  -1.317 -27.847  1.00  0.00    -0.040 A 
ATOM      5  C   UNL     1      -3.484  -0.103 -27.496  1.00  0.00     0.008 A 
ATOM      6  C   UNL     1      -3.768   0.519 -26.276  1.00  0.00     0.050 A 
ATOM      7  C   UNL     1      -4.671  -0.076 -25.406  1.00  0.00     0.157 A 
ATOM      8  C   UNL     1      -4.995  -1.912 -26.948  1.00  0.00     0.054 A 
ATOM      9  C   UNL     1      -5.279  -1.283 -25.744  1.00  0.00     0.157 A 
BRANCH   7  10
ATOM     10  O   UNL     1      -4.997   0.485 -24.203  1.00  0.00    -0.504 OA
ATOM     11  H   UNL     1      -5.903   0.834 -24.268  1.00  0.00     0.293 HD
ENDBRANCH   7  10
BRANCH   9  12
ATOM     12  O   UNL     1      -6.168  -1.862 -24.885  1.00  0.00    -0.504 OA
ATOM     13  H   UNL     1      -5.722  -1.835 -24.016  1.00  0.00     0.293 HD
ENDBRANCH   9  12
ENDBRANCH   3   4
ENDBRANCH   2   3
BRANCH   2  14
ATOM     14  C   UNL     1      -3.727  -0.284 -31.038  1.00  0.00     0.345 C 
ATOM     15  O   UNL     1      -3.818   0.917 -30.829  1.00  0.00    -0.248 OA
BRANCH  14  16
ATOM     16  O   UNL     1      -2.827  -0.782 -31.920  1.00  0.00    -0.478 OA
ATOM     17  H   UNL     1      -3.231  -1.238 -32.698  1.00  0.00     0.296 HD
ENDBRANCH  14  16
ENDBRANCH   2  14
ENDBRANCH   1   2
BRANCH   1  18
ATOM     18  C   UNL     1      -6.911  -1.081 -30.551  1.00  0.00     0.331 C 
ATOM     19  O   UNL     1      -7.142  -0.632 -31.663  1.00  0.00    -0.247 OA
BRANCH  18  20
ATOM     20  C   UNL     1      -7.801  -1.949 -29.764  1.00  0.00     0.094 C 
ATOM     21  C   UNL     1      -8.282  -3.078 -30.304  1.00  0.00     0.016 C 
BRANCH  21  22
ATOM     22  C   UNL     1      -9.192  -3.987 -29.597  1.00  0.00    -0.021 A 
ATOM     23  C   UNL     1      -9.243  -4.035 -28.194  1.00  0.00     0.058 A 
ATOM     24  C   UNL     1     -10.079  -4.779 -30.345  1.00  0.00     0.012 A 
ATOM     25  C   UNL     1     -10.152  -4.881 -27.568  1.00  0.00     0.157 A 
ATOM     26  C   UNL     1     -10.986  -5.629 -29.707  1.00  0.00     0.051 A 
ATOM     27  C   UNL     1     -11.014  -5.673 -28.322  1.00  0.00     0.157 A 
BRANCH  25  28
ATOM     28  O   UNL     1     -10.244  -4.965 -26.206  1.00  0.00    -0.504 OA
ATOM     29  H   UNL     1      -9.349  -5.080 -25.845  1.00  0.00     0.293 HD
ENDBRANCH  25  28
BRANCH  27  30
ATOM     30  O   UNL     1     -11.905  -6.497 -27.699  1.00  0.00    -0.504 OA
ATOM     31  H   UNL     1     -12.604  -6.652 -28.367  1.00  0.00     0.293 HD
ENDBRANCH  27  30
ENDBRANCH  21  22
ENDBRANCH  18  20
ENDBRANCH   1  18
TORSDOF 12
ENDMDL
MODEL 10
REMARK VINA RESULT:      -7.4      1.957      3.467
REMARK SMILES O=C(/C=C/c1ccc(O)c(O)c1)O[C@H](Cc1ccc(O)c(O)c1)C(=O)O
REMARK SMILES IDX 13 1 14 2 15 3 16 4 17 5 18 6 19 7 23 8 21 9 20 10 22 12
REMARK SMILES IDX 24 14 25 15 26 16 2 18 1 19 3 20 4 21 5 22 12 23 6 24 10 25
REMARK SMILES IDX 7 26 8 27 11 28 9 30
REMARK H PARENT 20 11 22 13 26 17 11 29 9 31
ROOT
ATOM      1  O   UNL     1      -9.100  -1.179 -30.763  1.00  0.00    -0.447 OA
ENDROOT
BRANCH   1   2
ATOM      2  C   UNL     1      -8.767  -0.092 -31.643  1.00  0.00     0.290 C 
BRANCH   2   3
ATOM      3  C   UNL     1      -8.809   1.214 -30.832  1.00  0.00     0.093 C 
BRANCH   3   4
ATOM      4  C   UNL     1      -7.432   1.775 -30.543  1.00  0.00    -0.040 A 
ATOM      5  C   UNL     1      -7.160   2.382 -29.305  1.00  0.00     0.008 A 
ATOM      6  C   UNL     1      -5.889   2.893 -29.021  1.00  0.00     0.050 A 
ATOM      7  C   UNL     1      -4.888   2.792 -29.978  1.00  0.00     0.157 A 
ATOM      8  C   UNL     1      -6.413   1.698 -31.504  1.00  0.00     0.054 A 
ATOM      9  C   UNL     1      -5.153   2.198 -31.209  1.00  0.00     0.157 A 
BRANCH   7  10
ATOM     10  O   UNL     1      -3.624   3.264 -29.758  1.00  0.00    -0.504 OA
ATOM     11  H   UNL     1      -3.350   3.770 -30.542  1.00  0.00     0.293 HD
ENDBRANCH   7  10
BRANCH   9  12
ATOM     12  O   UNL     1      -4.163   2.099 -32.144  1.00  0.00    -0.504 OA
ATOM     13  H   UNL     1      -3.818   1.191 -32.041  1.00  0.00     0.293 HD
ENDBRANCH   9  12
ENDBRANCH   3   4
ENDBRANCH   2   3
BRANCH   2  14
ATOM     14  C   UNL     1      -9.741   0.005 -32.827  1.00  0.00     0.345 C 
ATOM     15  O   UNL     1      -9.629  -0.620 -33.871  1.00  0.00    -0.248 OA
BRANCH  14  16
ATOM     16  O   UNL     1     -10.776   0.855 -32.619  1.00  0.00    -0.478 OA
ATOM     17  H   UNL     1     -11.624   0.571 -33.041  1.00  0.00     0.296 HD
ENDBRANCH  14  16
ENDBRANCH   2  14
ENDBRANCH   1   2
BRANCH   1  18
ATOM     18  C   UNL     1      -8.186  -2.175 -30.712  1.00  0.00     0.331 C 
ATOM     19  O   UNL     1      -8.442  -3.364 -30.820  1.00  0.00    -0.247 OA
BRANCH  18  20
ATOM     20  C   UNL     1      -6.860  -1.592 -30.448  1.00  0.00     0.094 C 
ATOM     21  C   UNL     1      -6.414  -1.493 -29.188  1.00  0.00     0.016 C 
BRANCH  21  22
ATOM     22  C   UNL     1      -5.115  -0.906 -28.836  1.00  0.00    -0.021 A 
ATOM     23  C   UNL     1      -4.107  -0.718 -29.796  1.00  0.00     0.058 A 
ATOM     24  C   UNL     1      -4.904  -0.461 -27.521  1.00  0.00     0.012 A 
ATOM     25  C   UNL     1      -2.908  -0.117 -29.424  1.00  0.00     0.157 A 
ATOM     26  C   UNL     1      -3.696   0.137 -27.156  1.00  0.00     0.051 A 
ATOM     27  C   UNL     1      -2.707   0.303 -28.113  1.00  0.00     0.157 A 
BRANCH  25  28
ATOM     28  O   UNL     1      -1.895   0.091 -30.319  1.00  0.00    -0.504 OA
ATOM     29  H   UNL     1      -2.164  -0.278 -31.178  1.00  0.00     0.293 HD
ENDBRANCH  25  28
BRANCH  27  30
ATOM     30  O   UNL     1      -1.529   0.895 -27.759  1.00  0.00    -0.504 OA
ATOM     31  H   UNL     1      -1.005   0.175 -27.354  1.00  0.00     0.293 HD
ENDBRANCH  27  30
ENDBRANCH  21  22
ENDBRANCH  18  20
ENDBRANCH   1  18
TORSDOF 12
ENDMDL
