MODEL 1
REMARK VINA RESULT:      -8.1      0.000      0.000
REMARK SMILES O=C(/C=C/c1ccc(O)c(O)c1)O[C@H](Cc1ccc(O)c(O)c1)C(=O)O
REMARK SMILES IDX 13 1 14 2 15 3 16 4 17 5 18 6 19 7 23 8 21 9 20 10 22 12
REMARK SMILES IDX 24 14 25 15 26 16 2 18 1 19 3 20 4 21 5 22 12 23 6 24 10 25
REMARK SMILES IDX 7 26 8 27 11 28 9 30
REMARK H PARENT 20 11 22 13 26 17 11 29 9 31
ROOT
ATOM      1  O   UNL     1      -8.343  -0.205 -32.183  1.00  0.00    -0.447 OA
ENDROOT
BRANCH   1   2
ATOM      2  C   UNL     1      -9.456   0.447 -31.545  1.00  0.00     0.290 C 
BRANCH   2   3
ATOM      3  C   UNL     1      -9.898  -0.415 -30.350  1.00  0.00     0.093 C 
BRANCH   3   4
ATOM      4  C   UNL     1      -8.735  -0.905 -29.513  1.00  0.00    -0.040 A 
ATOM      5  C   UNL     1      -8.239  -2.209 -29.683  1.00  0.00     0.008 A 
ATOM      6  C   UNL     1      -7.158  -2.671 -28.926  1.00  0.00     0.050 A 
ATOM      7  C   UNL     1      -6.570  -1.822 -27.997  1.00  0.00     0.157 A 
ATOM      8  C   UNL     1      -8.138  -0.069 -28.558  1.00  0.00     0.054 A 
ATOM      9  C   UNL     1      -7.059  -0.531 -27.819  1.00  0.00     0.157 A 
BRANCH   7  10
ATOM     10  O   UNL     1      -5.505  -2.210 -27.233  1.00  0.00    -0.504 OA
ATOM     11  H   UNL     1      -4.898  -2.722 -27.796  1.00  0.00     0.293 HD
ENDBRANCH   7  10
BRANCH   9  12
ATOM     12  O   UNL     1      -6.474   0.299 -26.906  1.00  0.00    -0.504 OA
ATOM     13  H   UNL     1      -7.145   0.400 -26.202  1.00  0.00     0.293 HD
ENDBRANCH   9  12
ENDBRANCH   3   4
ENDBRANCH   2   3
BRANCH   2  14
ATOM     14  C   UNL     1     -10.637   0.637 -32.508  1.00  0.00     0.345 C 
ATOM     15  O   UNL     1     -11.358  -0.266 -32.908  1.00  0.00    -0.248 OA
BRANCH  14  16
ATOM     16  O   UNL     1     -10.836   1.922 -32.889  1.00  0.00    -0.478 OA
ATOM     17  H   UNL     1     -10.333   2.584 -32.355  1.00  0.00     0.296 HD
ENDBRANCH  14  16
ENDBRANCH   2  14
ENDBRANCH   1   2
BRANCH   1  18
ATOM     18  C   UNL     1      -7.487   0.620 -32.824  1.00  0.00     0.331 C 
ATOM     19  O   UNL     1      -7.579   0.949 -33.997  1.00  0.00    -0.247 OA
BRANCH  18  20
ATOM     20  C   UNL     1      -6.407   1.000 -31.899  1.00  0.00     0.094 C 
ATOM     21  C   UNL     1      -5.674   0.049 -31.301  1.00  0.00     0.016 C 
BRANCH  21  22
ATOM     22  C   UNL     1      -4.595   0.341 -30.350  1.00  0.00    -0.021 A 
ATOM     23  C   UNL     1      -4.543   1.555 -29.644  1.00  0.00     0.058 A 
ATOM     24  C   UNL     1      -3.631  -0.647 -30.092  1.00  0.00     0.012 A 
ATOM     25  C   UNL     1      -3.526   1.769 -28.720  1.00  0.00     0.157 A 
ATOM     26  C   UNL     1      -2.610  -0.421 -29.165  1.00  0.00     0.051 A 
ATOM     27  C   UNL     1      -2.567   0.787 -28.487  1.00  0.00     0.157 A 
BRANCH  25  28
ATOM     28  O   UNL     1      -3.430   2.930 -28.005  1.00  0.00    -0.504 OA
ATOM     29  H   UNL     1      -4.247   3.041 -27.489  1.00  0.00     0.293 HD
ENDBRANCH  25  28
BRANCH  27  30
ATOM     30  O   UNL     1      -1.575   1.004 -27.575  1.00  0.00    -0.504 OA
ATOM     31  H   UNL     1      -1.251   1.906 -27.775  1.00  0.00     0.293 HD
ENDBRANCH  27  30
ENDBRANCH  21  22
ENDBRANCH  18  20
ENDBRANCH   1  18
TORSDOF 12
ENDMDL
MODEL 2
REMARK VINA RESULT:      -7.9      2.963      6.998
REMARK SMILES O=C(/C=C/c1ccc(O)c(O)c1)O[C@H](Cc1ccc(O)c(O)c1)C(=O)O
REMARK SMILES IDX 13 1 14 2 15 3 16 4 17 5 18 6 19 7 23 8 21 9 20 10 22 12
REMARK SMILES IDX 24 14 25 15 26 16 2 18 1 19 3 20 4 21 5 22 12 23 6 24 10 25
REMARK SMILES IDX 7 26 8 27 11 28 9 30
REMARK H PARENT 20 11 22 13 26 17 11 29 9 31
ROOT
ATOM      1  O   UNL     1      -6.098  -0.591 -30.757  1.00  0.00    -0.447 OA
ENDROOT
BRANCH   1   2
ATOM      2  C   UNL     1      -5.402   0.667 -30.769  1.00  0.00     0.290 C 
BRANCH   2   3
ATOM      3  C   UNL     1      -6.431   1.784 -31.011  1.00  0.00     0.093 C 
BRANCH   3   4
ATOM      4  C   UNL     1      -7.683   1.293 -31.708  1.00  0.00    -0.040 A 
ATOM      5  C   UNL     1      -7.697   1.125 -33.103  1.00  0.00     0.008 A 
ATOM      6  C   UNL     1      -8.843   0.660 -33.758  1.00  0.00     0.050 A 
ATOM      7  C   UNL     1      -9.975   0.360 -33.013  1.00  0.00     0.157 A 
ATOM      8  C   UNL     1      -8.843   1.001 -30.974  1.00  0.00     0.054 A 
ATOM      9  C   UNL     1      -9.970   0.530 -31.631  1.00  0.00     0.157 A 
BRANCH   7  10
ATOM     10  O   UNL     1     -11.122  -0.106 -33.593  1.00  0.00    -0.504 OA
ATOM     11  H   UNL     1     -11.235   0.347 -34.446  1.00  0.00     0.293 HD
ENDBRANCH   7  10
BRANCH   9  12
ATOM     12  O   UNL     1     -11.086   0.231 -30.904  1.00  0.00    -0.504 OA
ATOM     13  H   UNL     1     -11.660  -0.259 -31.526  1.00  0.00     0.293 HD
ENDBRANCH   9  12
ENDBRANCH   3   4
ENDBRANCH   2   3
BRANCH   2  14
ATOM     14  C   UNL     1      -4.323   0.715 -31.861  1.00  0.00     0.345 C 
ATOM     15  O   UNL     1      -4.260   1.566 -32.736  1.00  0.00    -0.248 OA
BRANCH  14  16
ATOM     16  O   UNL     1      -3.409  -0.282 -31.776  1.00  0.00    -0.478 OA
ATOM     17  H   UNL     1      -2.525   0.008 -31.444  1.00  0.00     0.296 HD
ENDBRANCH  14  16
ENDBRANCH   2  14
ENDBRANCH   1   2
BRANCH   1  18
ATOM     18  C   UNL     1      -5.765  -1.420 -29.743  1.00  0.00     0.331 C 
ATOM     19  O   UNL     1      -4.626  -1.631 -29.357  1.00  0.00    -0.247 OA
BRANCH  18  20
ATOM     20  C   UNL     1      -6.988  -2.061 -29.230  1.00  0.00     0.094 C 
ATOM     21  C   UNL     1      -7.444  -3.183 -29.806  1.00  0.00     0.016 C 
BRANCH  21  22
ATOM     22  C   UNL     1      -8.665  -3.873 -29.372  1.00  0.00    -0.021 A 
ATOM     23  C   UNL     1      -9.435  -4.640 -30.263  1.00  0.00     0.058 A 
ATOM     24  C   UNL     1      -9.034  -3.816 -28.018  1.00  0.00     0.012 A 
ATOM     25  C   UNL     1     -10.560  -5.311 -29.796  1.00  0.00     0.157 A 
ATOM     26  C   UNL     1     -10.168  -4.490 -27.560  1.00  0.00     0.051 A 
ATOM     27  C   UNL     1     -10.922  -5.232 -28.455  1.00  0.00     0.157 A 
BRANCH  25  28
ATOM     28  O   UNL     1     -11.341  -6.073 -30.620  1.00  0.00    -0.504 OA
ATOM     29  H   UNL     1     -12.209  -6.192 -30.196  1.00  0.00     0.293 HD
ENDBRANCH  25  28
BRANCH  27  30
ATOM     30  O   UNL     1     -12.026  -5.897 -28.005  1.00  0.00    -0.504 OA
ATOM     31  H   UNL     1     -11.805  -6.844 -28.119  1.00  0.00     0.293 HD
ENDBRANCH  27  30
ENDBRANCH  21  22
ENDBRANCH  18  20
ENDBRANCH   1  18
TORSDOF 12
ENDMDL
MODEL 3
REMARK VINA RESULT:      -7.7      1.943      3.588
REMARK SMILES O=C(/C=C/c1ccc(O)c(O)c1)O[C@H](Cc1ccc(O)c(O)c1)C(=O)O
REMARK SMILES IDX 13 1 14 2 15 3 16 4 17 5 18 6 19 7 23 8 21 9 20 10 22 12
REMARK SMILES IDX 24 14 25 15 26 16 2 18 1 19 3 20 4 21 5 22 12 23 6 24 10 25
REMARK SMILES IDX 7 26 8 27 11 28 9 30
REMARK H PARENT 20 11 22 13 26 17 11 29 9 31
ROOT
ATOM      1  O   UNL     1      -8.992  -1.229 -30.624  1.00  0.00    -0.447 OA
ENDROOT
BRANCH   1   2
ATOM      2  C   UNL     1      -8.800  -0.216 -31.627  1.00  0.00     0.290 C 
BRANCH   2   3
ATOM      3  C   UNL     1      -8.843   1.158 -30.938  1.00  0.00     0.093 C 
BRANCH   3   4
ATOM      4  C   UNL     1      -7.466   1.735 -30.684  1.00  0.00    -0.040 A 
ATOM      5  C   UNL     1      -7.204   2.451 -29.503  1.00  0.00     0.008 A 
ATOM      6  C   UNL     1      -5.933   2.978 -29.250  1.00  0.00     0.050 A 
ATOM      7  C   UNL     1      -4.922   2.785 -30.182  1.00  0.00     0.157 A 
ATOM      8  C   UNL     1      -6.435   1.566 -31.621  1.00  0.00     0.054 A 
ATOM      9  C   UNL     1      -5.176   2.083 -31.357  1.00  0.00     0.157 A 
BRANCH   7  10
ATOM     10  O   UNL     1      -3.657   3.268 -29.989  1.00  0.00    -0.504 OA
ATOM     11  H   UNL     1      -3.516   4.003 -30.611  1.00  0.00     0.293 HD
ENDBRANCH   7  10
BRANCH   9  12
ATOM     12  O   UNL     1      -4.176   1.895 -32.267  1.00  0.00    -0.504 OA
ATOM     13  H   UNL     1      -4.634   1.585 -33.074  1.00  0.00     0.293 HD
ENDBRANCH   9  12
ENDBRANCH   3   4
ENDBRANCH   2   3
BRANCH   2  14
ATOM     14  C   UNL     1      -9.879  -0.279 -32.718  1.00  0.00     0.345 C 
ATOM     15  O   UNL     1     -11.056   0.008 -32.547  1.00  0.00    -0.248 OA
BRANCH  14  16
ATOM     16  O   UNL     1      -9.418  -0.680 -33.927  1.00  0.00    -0.478 OA
ATOM     17  H   UNL     1      -8.448  -0.541 -34.056  1.00  0.00     0.296 HD
ENDBRANCH  14  16
ENDBRANCH   2  14
ENDBRANCH   1   2
BRANCH   1  18
ATOM     18  C   UNL     1      -8.050  -2.198 -30.602  1.00  0.00     0.331 C 
ATOM     19  O   UNL     1      -8.273  -3.392 -30.732  1.00  0.00    -0.247 OA
BRANCH  18  20
ATOM     20  C   UNL     1      -6.738  -1.584 -30.338  1.00  0.00     0.094 C 
ATOM     21  C   UNL     1      -6.303  -1.456 -29.076  1.00  0.00     0.016 C 
BRANCH  21  22
ATOM     22  C   UNL     1      -5.020  -0.837 -28.725  1.00  0.00    -0.021 A 
ATOM     23  C   UNL     1      -3.996  -0.673 -29.672  1.00  0.00     0.058 A 
ATOM     24  C   UNL     1      -4.840  -0.337 -27.425  1.00  0.00     0.012 A 
ATOM     25  C   UNL     1      -2.813  -0.041 -29.304  1.00  0.00     0.157 A 
ATOM     26  C   UNL     1      -3.647   0.294 -27.063  1.00  0.00     0.051 A 
ATOM     27  C   UNL     1      -2.643   0.435 -28.007  1.00  0.00     0.157 A 
BRANCH  25  28
ATOM     28  O   UNL     1      -1.787   0.146 -30.187  1.00  0.00    -0.504 OA
ATOM     29  H   UNL     1      -2.143   0.080 -31.090  1.00  0.00     0.293 HD
ENDBRANCH  25  28
BRANCH  27  30
ATOM     30  O   UNL     1      -1.480   1.058 -27.655  1.00  0.00    -0.504 OA
ATOM     31  H   UNL     1      -1.550   1.949 -28.053  1.00  0.00     0.293 HD
ENDBRANCH  27  30
ENDBRANCH  21  22
ENDBRANCH  18  20
ENDBRANCH   1  18
TORSDOF 12
ENDMDL
MODEL 4
REMARK VINA RESULT:      -7.6      2.035      6.937
REMARK SMILES O=C(/C=C/c1ccc(O)c(O)c1)O[C@H](Cc1ccc(O)c(O)c1)C(=O)O
REMARK SMILES IDX 13 1 14 2 15 3 16 4 17 5 18 6 19 7 23 8 21 9 20 10 22 12
REMARK SMILES IDX 24 14 25 15 26 16 2 18 1 19 3 20 4 21 5 22 12 23 6 24 10 25
REMARK SMILES IDX 7 26 8 27 11 28 9 30
REMARK H PARENT 20 11 22 13 26 17 11 29 9 31
ROOT
ATOM      1  O   UNL     1      -6.687  -1.755 -26.824  1.00  0.00    -0.447 OA
ENDROOT
BRANCH   1   2
ATOM      2  C   UNL     1      -5.717  -0.708 -26.646  1.00  0.00     0.290 C 
BRANCH   2   3
ATOM      3  C   UNL     1      -4.439  -1.103 -27.405  1.00  0.00     0.093 C 
BRANCH   3   4
ATOM      4  C   UNL     1      -4.316  -0.418 -28.750  1.00  0.00    -0.040 A 
ATOM      5  C   UNL     1      -4.918   0.834 -28.966  1.00  0.00     0.008 A 
ATOM      6  C   UNL     1      -4.802   1.484 -30.199  1.00  0.00     0.050 A 
ATOM      7  C   UNL     1      -4.077   0.879 -31.217  1.00  0.00     0.157 A 
ATOM      8  C   UNL     1      -3.602  -1.020 -29.797  1.00  0.00     0.054 A 
ATOM      9  C   UNL     1      -3.483  -0.363 -31.014  1.00  0.00     0.157 A 
BRANCH   7  10
ATOM     10  O   UNL     1      -3.920   1.466 -32.442  1.00  0.00    -0.504 OA
ATOM     11  H   UNL     1      -3.391   2.275 -32.324  1.00  0.00     0.293 HD
ENDBRANCH   7  10
BRANCH   9  12
ATOM     12  O   UNL     1      -2.770  -0.951 -32.019  1.00  0.00    -0.504 OA
ATOM     13  H   UNL     1      -2.627  -1.869 -31.714  1.00  0.00     0.293 HD
ENDBRANCH   9  12
ENDBRANCH   3   4
ENDBRANCH   2   3
BRANCH   2  14
ATOM     14  C   UNL     1      -5.387  -0.480 -25.164  1.00  0.00     0.345 C 
ATOM     15  O   UNL     1      -5.891  -1.099 -24.237  1.00  0.00    -0.248 OA
BRANCH  14  16
ATOM     16  O   UNL     1      -4.457   0.481 -24.949  1.00  0.00    -0.478 OA
ATOM     17  H   UNL     1      -3.750   0.225 -24.307  1.00  0.00     0.296 HD
ENDBRANCH  14  16
ENDBRANCH   2  14
ENDBRANCH   1   2
BRANCH   1  18
ATOM     18  C   UNL     1      -7.977  -1.364 -26.723  1.00  0.00     0.331 C 
ATOM     19  O   UNL     1      -8.748  -1.718 -25.844  1.00  0.00    -0.247 OA
BRANCH  18  20
ATOM     20  C   UNL     1      -8.305  -0.499 -27.868  1.00  0.00     0.094 C 
ATOM     21  C   UNL     1      -8.793  -1.039 -28.994  1.00  0.00     0.016 C 
BRANCH  21  22
ATOM     22  C   UNL     1      -9.125  -0.253 -30.188  1.00  0.00    -0.021 A 
ATOM     23  C   UNL     1     -10.164  -0.631 -31.055  1.00  0.00     0.058 A 
ATOM     24  C   UNL     1      -8.427   0.941 -30.431  1.00  0.00     0.012 A 
ATOM     25  C   UNL     1     -10.470   0.170 -32.150  1.00  0.00     0.157 A 
ATOM     26  C   UNL     1      -8.739   1.737 -31.537  1.00  0.00     0.051 A 
ATOM     27  C   UNL     1      -9.759   1.342 -32.388  1.00  0.00     0.157 A 
BRANCH  25  28
ATOM     28  O   UNL     1     -11.473  -0.151 -33.023  1.00  0.00    -0.504 OA
ATOM     29  H   UNL     1     -11.734   0.656 -33.500  1.00  0.00     0.293 HD
ENDBRANCH  25  28
BRANCH  27  30
ATOM     30  O   UNL     1     -10.069   2.123 -33.463  1.00  0.00    -0.504 OA
ATOM     31  H   UNL     1     -10.984   1.868 -33.696  1.00  0.00     0.293 HD
ENDBRANCH  27  30
ENDBRANCH  21  22
ENDBRANCH  18  20
ENDBRANCH   1  18
TORSDOF 12
ENDMDL
MODEL 5
REMARK VINA RESULT:      -7.5      2.118      6.055
REMARK SMILES O=C(/C=C/c1ccc(O)c(O)c1)O[C@H](Cc1ccc(O)c(O)c1)C(=O)O
REMARK SMILES IDX 13 1 14 2 15 3 16 4 17 5 18 6 19 7 23 8 21 9 20 10 22 12
REMARK SMILES IDX 24 14 25 15 26 16 2 18 1 19 3 20 4 21 5 22 12 23 6 24 10 25
REMARK SMILES IDX 7 26 8 27 11 28 9 30
REMARK H PARENT 20 11 22 13 26 17 11 29 9 31
ROOT
ATOM      1  O   UNL     1      -3.743   1.777 -29.878  1.00  0.00    -0.447 OA
ENDROOT
BRANCH   1   2
ATOM      2  C   UNL     1      -3.953   0.367 -29.693  1.00  0.00     0.290 C 
BRANCH   2   3
ATOM      3  C   UNL     1      -3.344  -0.037 -28.339  1.00  0.00     0.093 C 
BRANCH   3   4
ATOM      4  C   UNL     1      -4.391  -0.380 -27.299  1.00  0.00    -0.040 A 
ATOM      5  C   UNL     1      -4.210   0.002 -25.959  1.00  0.00     0.008 A 
ATOM      6  C   UNL     1      -5.175  -0.297 -24.991  1.00  0.00     0.050 A 
ATOM      7  C   UNL     1      -6.324  -0.978 -25.368  1.00  0.00     0.157 A 
ATOM      8  C   UNL     1      -5.552  -1.082 -27.657  1.00  0.00     0.054 A 
ATOM      9  C   UNL     1      -6.508  -1.365 -26.693  1.00  0.00     0.157 A 
BRANCH   7  10
ATOM     10  O   UNL     1      -7.308  -1.292 -24.471  1.00  0.00    -0.504 OA
ATOM     11  H   UNL     1      -7.228  -2.238 -24.255  1.00  0.00     0.293 HD
ENDBRANCH   7  10
BRANCH   9  12
ATOM     12  O   UNL     1      -7.642  -2.031 -27.057  1.00  0.00    -0.504 OA
ATOM     13  H   UNL     1      -7.320  -2.861 -27.461  1.00  0.00     0.293 HD
ENDBRANCH   9  12
ENDBRANCH   3   4
ENDBRANCH   2   3
BRANCH   2  14
ATOM     14  C   UNL     1      -3.308  -0.460 -30.814  1.00  0.00     0.345 C 
ATOM     15  O   UNL     1      -3.431  -1.670 -30.943  1.00  0.00    -0.248 OA
BRANCH  14  16
ATOM     16  O   UNL     1      -2.576   0.273 -31.688  1.00  0.00    -0.478 OA
ATOM     17  H   UNL     1      -1.753  -0.176 -32.003  1.00  0.00     0.296 HD
ENDBRANCH  14  16
ENDBRANCH   2  14
ENDBRANCH   1   2
BRANCH   1  18
ATOM     18  C   UNL     1      -4.802   2.559 -29.571  1.00  0.00     0.331 C 
ATOM     19  O   UNL     1      -4.739   3.610 -28.951  1.00  0.00    -0.247 OA
BRANCH  18  20
ATOM     20  C   UNL     1      -6.031   1.908 -30.054  1.00  0.00     0.094 C 
ATOM     21  C   UNL     1      -6.405   2.054 -31.333  1.00  0.00     0.016 C 
BRANCH  21  22
ATOM     22  C   UNL     1      -7.626   1.458 -31.889  1.00  0.00    -0.021 A 
ATOM     23  C   UNL     1      -8.748   1.191 -31.087  1.00  0.00     0.058 A 
ATOM     24  C   UNL     1      -7.694   1.212 -33.270  1.00  0.00     0.012 A 
ATOM     25  C   UNL     1      -9.898   0.667 -31.667  1.00  0.00     0.157 A 
ATOM     26  C   UNL     1      -8.852   0.681 -33.843  1.00  0.00     0.051 A 
ATOM     27  C   UNL     1      -9.945   0.412 -33.035  1.00  0.00     0.157 A 
BRANCH  25  28
ATOM     28  O   UNL     1     -11.018   0.391 -30.932  1.00  0.00    -0.504 OA
ATOM     29  H   UNL     1     -11.382   1.230 -30.602  1.00  0.00     0.293 HD
ENDBRANCH  25  28
BRANCH  27  30
ATOM     30  O   UNL     1     -11.079  -0.099 -33.596  1.00  0.00    -0.504 OA
ATOM     31  H   UNL     1     -11.402  -0.753 -32.943  1.00  0.00     0.293 HD
ENDBRANCH  27  30
ENDBRANCH  21  22
ENDBRANCH  18  20
ENDBRANCH   1  18
TORSDOF 12
ENDMDL
MODEL 6
REMARK VINA RESULT:      -7.5      2.557      6.653
REMARK SMILES O=C(/C=C/c1ccc(O)c(O)c1)O[C@H](Cc1ccc(O)c(O)c1)C(=O)O
REMARK SMILES IDX 13 1 14 2 15 3 16 4 17 5 18 6 19 7 23 8 21 9 20 10 22 12
REMARK SMILES IDX 24 14 25 15 26 16 2 18 1 19 3 20 4 21 5 22 12 23 6 24 10 25
REMARK SMILES IDX 7 26 8 27 11 28 9 30
REMARK H PARENT 20 11 22 13 26 17 11 29 9 31
ROOT
ATOM      1  O   UNL     1      -4.864  -0.423 -30.604  1.00  0.00    -0.447 OA
ENDROOT
BRANCH   1   2
ATOM      2  C   UNL     1      -5.766   0.696 -30.557  1.00  0.00     0.290 C 
BRANCH   2   3
ATOM      3  C   UNL     1      -6.270   0.968 -31.985  1.00  0.00     0.093 C 
BRANCH   3   4
ATOM      4  C   UNL     1      -7.714   0.558 -32.189  1.00  0.00    -0.040 A 
ATOM      5  C   UNL     1      -8.104  -0.779 -32.003  1.00  0.00     0.008 A 
ATOM      6  C   UNL     1      -9.436  -1.169 -32.177  1.00  0.00     0.050 A 
ATOM      7  C   UNL     1     -10.380  -0.215 -32.534  1.00  0.00     0.157 A 
ATOM      8  C   UNL     1      -8.679   1.504 -32.567  1.00  0.00     0.054 A 
ATOM      9  C   UNL     1     -10.000   1.110 -32.727  1.00  0.00     0.157 A 
BRANCH   7  10
ATOM     10  O   UNL     1     -11.699  -0.531 -32.711  1.00  0.00    -0.504 OA
ATOM     11  H   UNL     1     -12.141   0.235 -33.118  1.00  0.00     0.293 HD
ENDBRANCH   7  10
BRANCH   9  12
ATOM     12  O   UNL     1     -10.934   2.043 -33.076  1.00  0.00    -0.504 OA
ATOM     13  H   UNL     1     -10.437   2.884 -33.115  1.00  0.00     0.293 HD
ENDBRANCH   9  12
ENDBRANCH   3   4
ENDBRANCH   2   3
BRANCH   2  14
ATOM     14  C   UNL     1      -5.087   1.957 -30.002  1.00  0.00     0.345 C 
ATOM     15  O   UNL     1      -5.665   2.844 -29.390  1.00  0.00    -0.248 OA
BRANCH  14  16
ATOM     16  O   UNL     1      -3.754   2.013 -30.237  1.00  0.00    -0.478 OA
ATOM     17  H   UNL     1      -3.428   1.340 -30.883  1.00  0.00     0.296 HD
ENDBRANCH  14  16
ENDBRANCH   2  14
ENDBRANCH   1   2
BRANCH   1  18
ATOM     18  C   UNL     1      -4.889  -1.225 -29.516  1.00  0.00     0.331 C 
ATOM     19  O   UNL     1      -4.102  -1.165 -28.585  1.00  0.00    -0.247 OA
BRANCH  18  20
ATOM     20  C   UNL     1      -5.975  -2.207 -29.673  1.00  0.00     0.094 C 
ATOM     21  C   UNL     1      -6.988  -2.228 -28.795  1.00  0.00     0.016 C 
BRANCH  21  22
ATOM     22  C   UNL     1      -8.097  -3.187 -28.865  1.00  0.00    -0.021 A 
ATOM     23  C   UNL     1      -9.100  -3.227 -27.883  1.00  0.00     0.058 A 
ATOM     24  C   UNL     1      -8.189  -4.039 -29.978  1.00  0.00     0.012 A 
ATOM     25  C   UNL     1     -10.156  -4.123 -28.015  1.00  0.00     0.157 A 
ATOM     26  C   UNL     1      -9.251  -4.939 -30.100  1.00  0.00     0.051 A 
ATOM     27  C   UNL     1     -10.225  -4.973 -29.115  1.00  0.00     0.157 A 
BRANCH  25  28
ATOM     28  O   UNL     1     -11.159  -4.202 -27.090  1.00  0.00    -0.504 OA
ATOM     29  H   UNL     1     -10.853  -3.778 -26.269  1.00  0.00     0.293 HD
ENDBRANCH  25  28
BRANCH  27  30
ATOM     30  O   UNL     1     -11.266  -5.847 -29.238  1.00  0.00    -0.504 OA
ATOM     31  H   UNL     1     -11.051  -6.375 -30.034  1.00  0.00     0.293 HD
ENDBRANCH  27  30
ENDBRANCH  21  22
ENDBRANCH  18  20
ENDBRANCH   1  18
TORSDOF 12
ENDMDL
MODEL 7
REMARK VINA RESULT:      -7.5      2.360      3.961
REMARK SMILES O=C(/C=C/c1ccc(O)c(O)c1)O[C@H](Cc1ccc(O)c(O)c1)C(=O)O
REMARK SMILES IDX 13 1 14 2 15 3 16 4 17 5 18 6 19 7 23 8 21 9 20 10 22 12
REMARK SMILES IDX 24 14 25 15 26 16 2 18 1 19 3 20 4 21 5 22 12 23 6 24 10 25
REMARK SMILES IDX 7 26 8 27 11 28 9 30
REMARK H PARENT 20 11 22 13 26 17 11 29 9 31
ROOT
ATOM      1  O   UNL     1      -6.590  -0.207 -31.610  1.00  0.00    -0.447 OA
ENDROOT
BRANCH   1   2
ATOM      2  C   UNL     1      -6.967  -0.993 -30.466  1.00  0.00     0.290 C 
BRANCH   2   3
ATOM      3  C   UNL     1      -5.780  -1.897 -30.092  1.00  0.00     0.093 C 
BRANCH   3   4
ATOM      4  C   UNL     1      -4.638  -1.136 -29.451  1.00  0.00    -0.040 A 
ATOM      5  C   UNL     1      -3.455  -0.894 -30.171  1.00  0.00     0.008 A 
ATOM      6  C   UNL     1      -2.398  -0.182 -29.596  1.00  0.00     0.050 A 
ATOM      7  C   UNL     1      -2.526   0.290 -28.297  1.00  0.00     0.157 A 
ATOM      8  C   UNL     1      -4.742  -0.665 -28.133  1.00  0.00     0.054 A 
ATOM      9  C   UNL     1      -3.692   0.049 -27.575  1.00  0.00     0.157 A 
BRANCH   7  10
ATOM     10  O   UNL     1      -1.532   1.000 -27.681  1.00  0.00    -0.504 OA
ATOM     11  H   UNL     1      -1.756   1.945 -27.738  1.00  0.00     0.293 HD
ENDBRANCH   7  10
BRANCH   9  12
ATOM     12  O   UNL     1      -3.813   0.519 -26.299  1.00  0.00    -0.504 OA
ATOM     13  H   UNL     1      -4.525   1.186 -26.350  1.00  0.00     0.293 HD
ENDBRANCH   9  12
ENDBRANCH   3   4
ENDBRANCH   2   3
BRANCH   2  14
ATOM     14  C   UNL     1      -8.204  -1.858 -30.749  1.00  0.00     0.345 C 
ATOM     15  O   UNL     1      -8.453  -2.917 -30.189  1.00  0.00    -0.248 OA
BRANCH  14  16
ATOM     16  O   UNL     1      -9.035  -1.342 -31.686  1.00  0.00    -0.478 OA
ATOM     17  H   UNL     1      -8.968  -0.361 -31.791  1.00  0.00     0.296 HD
ENDBRANCH  14  16
ENDBRANCH   2  14
ENDBRANCH   1   2
BRANCH   1  18
ATOM     18  C   UNL     1      -6.999   1.082 -31.579  1.00  0.00     0.331 C 
ATOM     19  O   UNL     1      -8.140   1.458 -31.794  1.00  0.00    -0.247 OA
BRANCH  18  20
ATOM     20  C   UNL     1      -5.837   1.944 -31.305  1.00  0.00     0.094 C 
ATOM     21  C   UNL     1      -5.830   2.728 -30.217  1.00  0.00     0.016 C 
BRANCH  21  22
ATOM     22  C   UNL     1      -4.724   3.633 -29.882  1.00  0.00    -0.021 A 
ATOM     23  C   UNL     1      -4.350   4.686 -30.733  1.00  0.00     0.058 A 
ATOM     24  C   UNL     1      -4.069   3.478 -28.650  1.00  0.00     0.012 A 
ATOM     25  C   UNL     1      -3.324   5.545 -30.353  1.00  0.00     0.157 A 
ATOM     26  C   UNL     1      -3.036   4.343 -28.279  1.00  0.00     0.051 A 
ATOM     27  C   UNL     1      -2.672   5.370 -29.135  1.00  0.00     0.157 A 
BRANCH  25  28
ATOM     28  O   UNL     1      -2.923   6.587 -31.141  1.00  0.00    -0.504 OA
ATOM     29  H   UNL     1      -3.510   6.630 -31.916  1.00  0.00     0.293 HD
ENDBRANCH  25  28
BRANCH  27  30
ATOM     30  O   UNL     1      -1.669   6.219 -28.769  1.00  0.00    -0.504 OA
ATOM     31  H   UNL     1      -0.886   5.642 -28.662  1.00  0.00     0.293 HD
ENDBRANCH  27  30
ENDBRANCH  21  22
ENDBRANCH  18  20
ENDBRANCH   1  18
TORSDOF 12
ENDMDL
MODEL 8
REMARK VINA RESULT:      -7.5      2.042      2.780
REMARK SMILES O=C(/C=C/c1ccc(O)c(O)c1)O[C@H](Cc1ccc(O)c(O)c1)C(=O)O
REMARK SMILES IDX 13 1 14 2 15 3 16 4 17 5 18 6 19 7 23 8 21 9 20 10 22 12
REMARK SMILES IDX 24 14 25 15 26 16 2 18 1 19 3 20 4 21 5 22 12 23 6 24 10 25
REMARK SMILES IDX 7 26 8 27 11 28 9 30
REMARK H PARENT 20 11 22 13 26 17 11 29 9 31
ROOT
ATOM      1  O   UNL     1      -8.018   0.139 -33.082  1.00  0.00    -0.447 OA
ENDROOT
BRANCH   1   2
ATOM      2  C   UNL     1      -9.186   0.092 -32.245  1.00  0.00     0.290 C 
BRANCH   2   3
ATOM      3  C   UNL     1      -9.461  -1.377 -31.884  1.00  0.00     0.093 C 
BRANCH   3   4
ATOM      4  C   UNL     1      -9.335  -1.654 -30.401  1.00  0.00    -0.040 A 
ATOM      5  C   UNL     1      -9.702  -0.674 -29.463  1.00  0.00     0.008 A 
ATOM      6  C   UNL     1      -9.603  -0.921 -28.090  1.00  0.00     0.050 A 
ATOM      7  C   UNL     1      -9.138  -2.155 -27.655  1.00  0.00     0.157 A 
ATOM      8  C   UNL     1      -8.851  -2.889 -29.942  1.00  0.00     0.054 A 
ATOM      9  C   UNL     1      -8.766  -3.128 -28.578  1.00  0.00     0.157 A 
BRANCH   7  10
ATOM     10  O   UNL     1      -9.025  -2.461 -26.327  1.00  0.00    -0.504 OA
ATOM     11  H   UNL     1      -9.891  -2.311 -25.908  1.00  0.00     0.293 HD
ENDBRANCH   7  10
BRANCH   9  12
ATOM     12  O   UNL     1      -8.311  -4.341 -28.144  1.00  0.00    -0.504 OA
ATOM     13  H   UNL     1      -7.426  -4.430 -28.548  1.00  0.00     0.293 HD
ENDBRANCH   9  12
ENDBRANCH   3   4
ENDBRANCH   2   3
BRANCH   2  14
ATOM     14  C   UNL     1     -10.416   0.690 -32.945  1.00  0.00     0.345 C 
ATOM     15  O   UNL     1     -10.609   1.886 -33.108  1.00  0.00    -0.248 OA
BRANCH  14  16
ATOM     16  O   UNL     1     -11.298  -0.236 -33.394  1.00  0.00    -0.478 OA
ATOM     17  H   UNL     1     -11.411  -1.012 -32.792  1.00  0.00     0.296 HD
ENDBRANCH  14  16
ENDBRANCH   2  14
ENDBRANCH   1   2
BRANCH   1  18
ATOM     18  C   UNL     1      -7.006   0.902 -32.612  1.00  0.00     0.331 C 
ATOM     19  O   UNL     1      -6.315   1.644 -33.293  1.00  0.00    -0.247 OA
BRANCH  18  20
ATOM     20  C   UNL     1      -6.844   0.645 -31.171  1.00  0.00     0.094 C 
ATOM     21  C   UNL     1      -5.977  -0.289 -30.754  1.00  0.00     0.016 C 
BRANCH  21  22
ATOM     22  C   UNL     1      -5.771  -0.623 -29.339  1.00  0.00    -0.021 A 
ATOM     23  C   UNL     1      -6.072   0.289 -28.315  1.00  0.00     0.058 A 
ATOM     24  C   UNL     1      -5.324  -1.912 -29.004  1.00  0.00     0.012 A 
ATOM     25  C   UNL     1      -5.901  -0.088 -26.987  1.00  0.00     0.157 A 
ATOM     26  C   UNL     1      -5.152  -2.281 -27.667  1.00  0.00     0.051 A 
ATOM     27  C   UNL     1      -5.442  -1.363 -26.669  1.00  0.00     0.157 A 
BRANCH  25  28
ATOM     28  O   UNL     1      -6.181   0.760 -25.952  1.00  0.00    -0.504 OA
ATOM     29  H   UNL     1      -6.872   0.353 -25.400  1.00  0.00     0.293 HD
ENDBRANCH  25  28
BRANCH  27  30
ATOM     30  O   UNL     1      -5.282  -1.726 -25.364  1.00  0.00    -0.504 OA
ATOM     31  H   UNL     1      -4.658  -1.066 -25.001  1.00  0.00     0.293 HD
ENDBRANCH  27  30
ENDBRANCH  21  22
ENDBRANCH  18  20
ENDBRANCH   1  18
TORSDOF 12
ENDMDL
MODEL 9
REMARK VINA RESULT:      -7.5      2.829      6.958
REMARK SMILES O=C(/C=C/c1ccc(O)c(O)c1)O[C@H](Cc1ccc(O)c(O)c1)C(=O)O
REMARK SMILES IDX 13 1 14 2 15 3 16 4 17 5 18 6 19 7 23 8 21 9 20 10 22 12
REMARK SMILES IDX 24 14 25 15 26 16 2 18 1 19 3 20 4 21 5 22 12 23 6 24 10 25
REMARK SMILES IDX 7 26 8 27 11 28 9 30
REMARK H PARENT 20 11 22 13 26 17 11 29 9 31
ROOT
ATOM      1  O   UNL     1      -5.489  -0.414 -28.906  1.00  0.00    -0.447 OA
ENDROOT
BRANCH   1   2
ATOM      2  C   UNL     1      -6.670   0.393 -29.052  1.00  0.00     0.290 C 
BRANCH   2   3
ATOM      3  C   UNL     1      -6.594   1.116 -30.408  1.00  0.00     0.093 C 
BRANCH   3   4
ATOM      4  C   UNL     1      -7.735   0.753 -31.335  1.00  0.00    -0.040 A 
ATOM      5  C   UNL     1      -7.832  -0.545 -31.865  1.00  0.00     0.008 A 
ATOM      6  C   UNL     1      -8.887  -0.897 -32.713  1.00  0.00     0.050 A 
ATOM      7  C   UNL     1      -9.849   0.053 -33.028  1.00  0.00     0.157 A 
ATOM      8  C   UNL     1      -8.707   1.704 -31.680  1.00  0.00     0.054 A 
ATOM      9  C   UNL     1      -9.756   1.343 -32.513  1.00  0.00     0.157 A 
BRANCH   7  10
ATOM     10  O   UNL     1     -10.909  -0.231 -33.844  1.00  0.00    -0.504 OA
ATOM     11  H   UNL     1     -11.721   0.064 -33.398  1.00  0.00     0.293 HD
ENDBRANCH   7  10
BRANCH   9  12
ATOM     12  O   UNL     1     -10.707   2.272 -32.825  1.00  0.00    -0.504 OA
ATOM     13  H   UNL     1     -10.361   3.109 -32.459  1.00  0.00     0.293 HD
ENDBRANCH   9  12
ENDBRANCH   3   4
ENDBRANCH   2   3
BRANCH   2  14
ATOM     14  C   UNL     1      -6.800   1.426 -27.923  1.00  0.00     0.345 C 
ATOM     15  O   UNL     1      -7.739   1.485 -27.142  1.00  0.00    -0.248 OA
BRANCH  14  16
ATOM     16  O   UNL     1      -5.760   2.291 -27.846  1.00  0.00    -0.478 OA
ATOM     17  H   UNL     1      -5.079   2.046 -27.173  1.00  0.00     0.296 HD
ENDBRANCH  14  16
ENDBRANCH   2  14
ENDBRANCH   1   2
BRANCH   1  18
ATOM     18  C   UNL     1      -5.563  -1.644 -29.463  1.00  0.00     0.331 C 
ATOM     19  O   UNL     1      -4.761  -2.098 -30.265  1.00  0.00    -0.247 OA
BRANCH  18  20
ATOM     20  C   UNL     1      -6.789  -2.308 -28.991  1.00  0.00     0.094 C 
ATOM     21  C   UNL     1      -7.381  -3.237 -29.756  1.00  0.00     0.016 C 
BRANCH  21  22
ATOM     22  C   UNL     1      -8.616  -3.931 -29.371  1.00  0.00    -0.021 A 
ATOM     23  C   UNL     1      -9.372  -4.662 -30.303  1.00  0.00     0.058 A 
ATOM     24  C   UNL     1      -9.012  -3.916 -28.024  1.00  0.00     0.012 A 
ATOM     25  C   UNL     1     -10.512  -5.339 -29.882  1.00  0.00     0.157 A 
ATOM     26  C   UNL     1     -10.161  -4.596 -27.612  1.00  0.00     0.051 A 
ATOM     27  C   UNL     1     -10.902  -5.301 -28.547  1.00  0.00     0.157 A 
BRANCH  25  28
ATOM     28  O   UNL     1     -11.281  -6.067 -30.747  1.00  0.00    -0.504 OA
ATOM     29  H   UNL     1     -11.748  -6.753 -30.239  1.00  0.00     0.293 HD
ENDBRANCH  25  28
BRANCH  27  30
ATOM     30  O   UNL     1     -12.020  -5.972 -28.143  1.00  0.00    -0.504 OA
ATOM     31  H   UNL     1     -12.524  -6.127 -28.967  1.00  0.00     0.293 HD
ENDBRANCH  27  30
ENDBRANCH  21  22
ENDBRANCH  18  20
ENDBRANCH   1  18
TORSDOF 12
ENDMDL
MODEL 10
REMARK VINA RESULT:      -7.4      1.723      3.223
REMARK SMILES O=C(/C=C/c1ccc(O)c(O)c1)O[C@H](Cc1ccc(O)c(O)c1)C(=O)O
REMARK SMILES IDX 13 1 14 2 15 3 16 4 17 5 18 6 19 7 23 8 21 9 20 10 22 12
REMARK SMILES IDX 24 14 25 15 26 16 2 18 1 19 3 20 4 21 5 22 12 23 6 24 10 25
REMARK SMILES IDX 7 26 8 27 11 28 9 30
REMARK H PARENT 20 11 22 13 26 17 11 29 9 31
ROOT
ATOM      1  O   UNL     1      -9.659  -1.066 -31.093  1.00  0.00    -0.447 OA
ENDROOT
BRANCH   1   2
ATOM      2  C   UNL     1      -9.202  -0.023 -31.971  1.00  0.00     0.290 C 
BRANCH   2   3
ATOM      3  C   UNL     1      -9.115   1.283 -31.163  1.00  0.00     0.093 C 
BRANCH   3   4
ATOM      4  C   UNL     1      -7.690   1.725 -30.908  1.00  0.00    -0.040 A 
ATOM      5  C   UNL     1      -6.705   1.549 -31.895  1.00  0.00     0.008 A 
ATOM      6  C   UNL     1      -5.387   1.964 -31.678  1.00  0.00     0.050 A 
ATOM      7  C   UNL     1      -5.056   2.559 -30.468  1.00  0.00     0.157 A 
ATOM      8  C   UNL     1      -7.331   2.313 -29.685  1.00  0.00     0.054 A 
ATOM      9  C   UNL     1      -6.023   2.731 -29.482  1.00  0.00     0.157 A 
BRANCH   7  10
ATOM     10  O   UNL     1      -3.788   2.994 -30.197  1.00  0.00    -0.504 OA
ATOM     11  H   UNL     1      -3.208   2.215 -30.133  1.00  0.00     0.293 HD
ENDBRANCH   7  10
BRANCH   9  12
ATOM     12  O   UNL     1      -5.691   3.319 -28.296  1.00  0.00    -0.504 OA
ATOM     13  H   UNL     1      -5.357   2.585 -27.743  1.00  0.00     0.293 HD
ENDBRANCH   9  12
ENDBRANCH   3   4
ENDBRANCH   2   3
BRANCH   2  14
ATOM     14  C   UNL     1     -10.147   0.173 -33.166  1.00  0.00     0.345 C 
ATOM     15  O   UNL     1      -9.819   0.664 -34.237  1.00  0.00    -0.248 OA
BRANCH  14  16
ATOM     16  O   UNL     1     -11.411  -0.262 -32.946  1.00  0.00    -0.478 OA
ATOM     17  H   UNL     1     -11.647  -0.353 -31.991  1.00  0.00     0.296 HD
ENDBRANCH  14  16
ENDBRANCH   2  14
ENDBRANCH   1   2
BRANCH   1  18
ATOM     18  C   UNL     1      -8.832  -2.131 -30.990  1.00  0.00     0.331 C 
ATOM     19  O   UNL     1      -9.188  -3.299 -31.034  1.00  0.00    -0.247 OA
BRANCH  18  20
ATOM     20  C   UNL     1      -7.460  -1.650 -30.758  1.00  0.00     0.094 C 
ATOM     21  C   UNL     1      -7.008  -1.501 -29.505  1.00  0.00     0.016 C 
BRANCH  21  22
ATOM     22  C   UNL     1      -5.663  -1.007 -29.186  1.00  0.00    -0.021 A 
ATOM     23  C   UNL     1      -5.381  -0.373 -27.965  1.00  0.00     0.058 A 
ATOM     24  C   UNL     1      -4.621  -1.233 -30.100  1.00  0.00     0.012 A 
ATOM     25  C   UNL     1      -4.081   0.039 -27.689  1.00  0.00     0.157 A 
ATOM     26  C   UNL     1      -3.320  -0.811 -29.816  1.00  0.00     0.051 A 
ATOM     27  C   UNL     1      -3.062  -0.177 -28.612  1.00  0.00     0.157 A 
BRANCH  25  28
ATOM     28  O   UNL     1      -3.752   0.658 -26.515  1.00  0.00    -0.504 OA
ATOM     29  H   UNL     1      -4.550   1.086 -26.159  1.00  0.00     0.293 HD
ENDBRANCH  25  28
BRANCH  27  30
ATOM     30  O   UNL     1      -1.789   0.228 -28.331  1.00  0.00    -0.504 OA
ATOM     31  H   UNL     1      -1.823   1.204 -28.395  1.00  0.00     0.293 HD
ENDBRANCH  27  30
ENDBRANCH  21  22
ENDBRANCH  18  20
ENDBRANCH   1  18
TORSDOF 12
ENDMDL
