MODEL 1
REMARK VINA RESULT:      -8.4      0.000      0.000
REMARK SMILES O=C(/C=C/c1ccc(O)c(O)c1)O[C@@H]1C[C@](O)(C(=O)O)C[C@@H](O)[C@H]1O
REMARK SMILES IDX 2 1 1 2 13 3 14 4 21 5 22 6 16 7 24 8 15 9 23 10 17 12 18 14
REMARK SMILES IDX 19 15 20 16 25 18 3 20 4 21 5 22 12 23 6 24 10 25 7 26 8 27
REMARK SMILES IDX 11 28 9 30
REMARK H PARENT 23 11 17 13 20 17 25 19 11 29 9 31
ROOT
ATOM      1  C   UNL     1      -4.894   2.992 -30.366  1.00  0.00     0.331 C 
ATOM      2  O   UNL     1      -4.695   4.187 -30.534  1.00  0.00    -0.247 OA
ENDROOT
BRANCH   1   3
ATOM      3  O   UNL     1      -3.983   2.091 -29.929  1.00  0.00    -0.456 OA
BRANCH   3   4
ATOM      4  C   UNL     1      -4.504   0.791 -29.583  1.00  0.00     0.211 C 
ATOM      5  C   UNL     1      -4.076  -1.802 -28.190  1.00  0.00     0.082 C 
ATOM      6  C   UNL     1      -3.953  -1.695 -29.710  1.00  0.00     0.150 C 
ATOM      7  C   UNL     1      -5.008  -0.728 -27.615  1.00  0.00     0.167 C 
ATOM      8  C   UNL     1      -3.564  -0.279 -30.168  1.00  0.00     0.184 C 
ATOM      9  C   UNL     1      -4.581   0.671 -28.057  1.00  0.00     0.095 C 
BRANCH   6  10
ATOM     10  O   UNL     1      -5.185  -2.061 -30.351  1.00  0.00    -0.390 OA
ATOM     11  H   UNL     1      -5.149  -1.764 -31.283  1.00  0.00     0.211 HD
ENDBRANCH   6  10
BRANCH   7  12
ATOM     12  O   UNL     1      -6.347  -0.995 -28.090  1.00  0.00    -0.378 OA
ATOM     13  H   UNL     1      -6.483  -0.458 -28.899  1.00  0.00     0.212 HD
ENDBRANCH   7  12
BRANCH   7  14
ATOM     14  C   UNL     1      -5.005  -0.843 -26.083  1.00  0.00     0.335 C 
ATOM     15  O   UNL     1      -5.385  -1.814 -25.450  1.00  0.00    -0.249 OA
BRANCH  14  16
ATOM     16  O   UNL     1      -4.542   0.291 -25.498  1.00  0.00    -0.479 OA
ATOM     17  H   UNL     1      -4.727   0.264 -24.531  1.00  0.00     0.296 HD
ENDBRANCH  14  16
ENDBRANCH   7  14
BRANCH   8  18
ATOM     18  O   UNL     1      -3.615  -0.231 -31.601  1.00  0.00    -0.387 OA
ATOM     19  H   UNL     1      -2.687  -0.123 -31.897  1.00  0.00     0.211 HD
ENDBRANCH   8  18
ENDBRANCH   3   4
ENDBRANCH   1   3
BRANCH   1  20
ATOM     20  C   UNL     1      -6.194   2.361 -30.673  1.00  0.00     0.094 C 
ATOM     21  C   UNL     1      -6.579   1.989 -31.904  1.00  0.00     0.016 C 
BRANCH  21  22
ATOM     22  C   UNL     1      -7.872   1.352 -32.186  1.00  0.00    -0.021 A 
ATOM     23  C   UNL     1      -8.805   1.086 -31.171  1.00  0.00     0.058 A 
ATOM     24  C   UNL     1      -8.200   1.056 -33.518  1.00  0.00     0.012 A 
ATOM     25  C   UNL     1     -10.029   0.512 -31.500  1.00  0.00     0.157 A 
ATOM     26  C   UNL     1      -9.432   0.476 -33.838  1.00  0.00     0.051 A 
ATOM     27  C   UNL     1     -10.335   0.207 -32.822  1.00  0.00     0.157 A 
BRANCH  25  28
ATOM     28  O   UNL     1     -10.974   0.231 -30.550  1.00  0.00    -0.504 OA
ATOM     29  H   UNL     1     -11.323  -0.660 -30.720  1.00  0.00     0.293 HD
ENDBRANCH  25  28
BRANCH  27  30
ATOM     30  O   UNL     1     -11.539  -0.355 -33.133  1.00  0.00    -0.504 OA
ATOM     31  H   UNL     1     -11.617  -1.119 -32.527  1.00  0.00     0.293 HD
ENDBRANCH  27  30
ENDBRANCH  21  22
ENDBRANCH   1  20
TORSDOF 11
ENDMDL
MODEL 2
REMARK VINA RESULT:      -8.1      1.768      4.258
REMARK SMILES O=C(/C=C/c1ccc(O)c(O)c1)O[C@@H]1C[C@](O)(C(=O)O)C[C@@H](O)[C@H]1O
REMARK SMILES IDX 2 1 1 2 13 3 14 4 21 5 22 6 16 7 24 8 15 9 23 10 17 12 18 14
REMARK SMILES IDX 19 15 20 16 25 18 3 20 4 21 5 22 12 23 6 24 10 25 7 26 8 27
REMARK SMILES IDX 11 28 9 30
REMARK H PARENT 23 11 17 13 20 17 25 19 11 29 9 31
ROOT
ATOM      1  C   UNL     1      -6.830  -1.368 -27.362  1.00  0.00     0.331 C 
ATOM      2  O   UNL     1      -7.376  -1.689 -26.314  1.00  0.00    -0.247 OA
ENDROOT
BRANCH   1   3
ATOM      3  O   UNL     1      -5.545  -1.630 -27.696  1.00  0.00    -0.456 OA
BRANCH   3   4
ATOM      4  C   UNL     1      -4.770  -0.495 -28.138  1.00  0.00     0.211 C 
ATOM      5  C   UNL     1      -2.083   0.660 -28.678  1.00  0.00     0.082 C 
ATOM      6  C   UNL     1      -2.866   1.041 -27.422  1.00  0.00     0.150 C 
ATOM      7  C   UNL     1      -3.011   0.221 -29.818  1.00  0.00     0.167 C 
ATOM      8  C   UNL     1      -3.847  -0.061 -26.985  1.00  0.00     0.184 C 
ATOM      9  C   UNL     1      -3.951  -0.896 -29.370  1.00  0.00     0.095 C 
BRANCH   6  10
ATOM     10  O   UNL     1      -3.604   2.256 -27.627  1.00  0.00    -0.390 OA
ATOM     11  H   UNL     1      -4.520   2.119 -27.309  1.00  0.00     0.211 HD
ENDBRANCH   6  10
BRANCH   7  12
ATOM     12  O   UNL     1      -3.787   1.368 -30.230  1.00  0.00    -0.378 OA
ATOM     13  H   UNL     1      -4.012   1.245 -31.177  1.00  0.00     0.212 HD
ENDBRANCH   7  12
BRANCH   7  14
ATOM     14  C   UNL     1      -2.149  -0.232 -31.006  1.00  0.00     0.335 C 
ATOM     15  O   UNL     1      -0.952  -0.026 -31.126  1.00  0.00    -0.249 OA
BRANCH  14  16
ATOM     16  O   UNL     1      -2.888  -0.884 -31.939  1.00  0.00    -0.479 OA
ATOM     17  H   UNL     1      -3.831  -0.904 -31.659  1.00  0.00     0.296 HD
ENDBRANCH  14  16
ENDBRANCH   7  14
BRANCH   8  18
ATOM     18  O   UNL     1      -4.638   0.435 -25.896  1.00  0.00    -0.387 OA
ATOM     19  H   UNL     1      -4.058   0.399 -25.107  1.00  0.00     0.211 HD
ENDBRANCH   8  18
ENDBRANCH   3   4
ENDBRANCH   1   3
BRANCH   1  20
ATOM     20  C   UNL     1      -7.528  -0.589 -28.405  1.00  0.00     0.094 C 
ATOM     21  C   UNL     1      -8.162  -1.135 -29.455  1.00  0.00     0.016 C 
BRANCH  21  22
ATOM     22  C   UNL     1      -8.860  -0.343 -30.475  1.00  0.00    -0.021 A 
ATOM     23  C   UNL     1      -9.953  -0.856 -31.193  1.00  0.00     0.058 A 
ATOM     24  C   UNL     1      -8.455   0.983 -30.694  1.00  0.00     0.012 A 
ATOM     25  C   UNL     1     -10.600  -0.050 -32.126  1.00  0.00     0.157 A 
ATOM     26  C   UNL     1      -9.109   1.784 -31.634  1.00  0.00     0.051 A 
ATOM     27  C   UNL     1     -10.177   1.257 -32.344  1.00  0.00     0.157 A 
BRANCH  25  28
ATOM     28  O   UNL     1     -11.668  -0.500 -32.852  1.00  0.00    -0.504 OA
ATOM     29  H   UNL     1     -11.583  -1.463 -32.957  1.00  0.00     0.293 HD
ENDBRANCH  25  28
BRANCH  27  30
ATOM     30  O   UNL     1     -10.819   2.039 -33.260  1.00  0.00    -0.504 OA
ATOM     31  H   UNL     1     -10.481   1.732 -34.125  1.00  0.00     0.293 HD
ENDBRANCH  27  30
ENDBRANCH  21  22
ENDBRANCH   1  20
TORSDOF 11
ENDMDL
MODEL 3
REMARK VINA RESULT:      -7.9      3.898      4.683
REMARK SMILES O=C(/C=C/c1ccc(O)c(O)c1)O[C@@H]1C[C@](O)(C(=O)O)C[C@@H](O)[C@H]1O
REMARK SMILES IDX 2 1 1 2 13 3 14 4 21 5 22 6 16 7 24 8 15 9 23 10 17 12 18 14
REMARK SMILES IDX 19 15 20 16 25 18 3 20 4 21 5 22 12 23 6 24 10 25 7 26 8 27
REMARK SMILES IDX 11 28 9 30
REMARK H PARENT 23 11 17 13 20 17 25 19 11 29 9 31
ROOT
ATOM      1  C   UNL     1      -7.754  -0.711 -30.925  1.00  0.00     0.331 C 
ATOM      2  O   UNL     1      -7.724  -0.646 -32.147  1.00  0.00    -0.247 OA
ENDROOT
BRANCH   1   3
ATOM      3  O   UNL     1      -7.010   0.036 -30.076  1.00  0.00    -0.456 OA
BRANCH   3   4
ATOM      4  C   UNL     1      -5.999  -0.680 -29.335  1.00  0.00     0.211 C 
ATOM      5  C   UNL     1      -3.762  -0.569 -27.378  1.00  0.00     0.082 C 
ATOM      6  C   UNL     1      -3.492  -0.714 -28.875  1.00  0.00     0.150 C 
ATOM      7  C   UNL     1      -5.140  -1.120 -26.990  1.00  0.00     0.167 C 
ATOM      8  C   UNL     1      -4.620  -0.122 -29.735  1.00  0.00     0.184 C 
ATOM      9  C   UNL     1      -6.247  -0.491 -27.835  1.00  0.00     0.095 C 
BRANCH   6  10
ATOM     10  O   UNL     1      -3.320  -2.095 -29.232  1.00  0.00    -0.390 OA
ATOM     11  H   UNL     1      -2.474  -2.186 -29.718  1.00  0.00     0.211 HD
ENDBRANCH   6  10
BRANCH   7  12
ATOM     12  O   UNL     1      -5.127  -2.550 -27.200  1.00  0.00    -0.378 OA
ATOM     13  H   UNL     1      -6.044  -2.873 -27.074  1.00  0.00     0.212 HD
ENDBRANCH   7  12
BRANCH   7  14
ATOM     14  C   UNL     1      -5.375  -0.853 -25.495  1.00  0.00     0.335 C 
ATOM     15  O   UNL     1      -6.067  -1.536 -24.759  1.00  0.00    -0.249 OA
BRANCH  14  16
ATOM     16  O   UNL     1      -4.727   0.266 -25.080  1.00  0.00    -0.479 OA
ATOM     17  H   UNL     1      -5.254   0.711 -24.378  1.00  0.00     0.296 HD
ENDBRANCH  14  16
ENDBRANCH   7  14
BRANCH   8  18
ATOM     18  O   UNL     1      -4.358  -0.431 -31.112  1.00  0.00    -0.387 OA
ATOM     19  H   UNL     1      -3.383  -0.411 -31.208  1.00  0.00     0.211 HD
ENDBRANCH   8  18
ENDBRANCH   3   4
ENDBRANCH   1   3
BRANCH   1  20
ATOM     20  C   UNL     1      -8.608  -1.680 -30.210  1.00  0.00     0.094 C 
ATOM     21  C   UNL     1      -8.481  -3.013 -30.310  1.00  0.00     0.016 C 
BRANCH  21  22
ATOM     22  C   UNL     1      -9.334  -3.961 -29.580  1.00  0.00    -0.021 A 
ATOM     23  C   UNL     1      -9.351  -4.015 -28.177  1.00  0.00     0.058 A 
ATOM     24  C   UNL     1     -10.195  -4.793 -30.311  1.00  0.00     0.012 A 
ATOM     25  C   UNL     1     -10.203  -4.909 -27.536  1.00  0.00     0.157 A 
ATOM     26  C   UNL     1     -11.046  -5.690 -29.659  1.00  0.00     0.051 A 
ATOM     27  C   UNL     1     -11.040  -5.740 -28.274  1.00  0.00     0.157 A 
BRANCH  25  28
ATOM     28  O   UNL     1     -10.259  -5.003 -26.172  1.00  0.00    -0.504 OA
ATOM     29  H   UNL     1     -11.069  -5.483 -25.931  1.00  0.00     0.293 HD
ENDBRANCH  25  28
BRANCH  27  30
ATOM     30  O   UNL     1     -11.873  -6.613 -27.635  1.00  0.00    -0.504 OA
ATOM     31  H   UNL     1     -11.458  -7.489 -27.768  1.00  0.00     0.293 HD
ENDBRANCH  27  30
ENDBRANCH  21  22
ENDBRANCH   1  20
TORSDOF 11
ENDMDL
MODEL 4
REMARK VINA RESULT:      -7.9      4.067      6.520
REMARK SMILES O=C(/C=C/c1ccc(O)c(O)c1)O[C@@H]1C[C@](O)(C(=O)O)C[C@@H](O)[C@H]1O
REMARK SMILES IDX 2 1 1 2 13 3 14 4 21 5 22 6 16 7 24 8 15 9 23 10 17 12 18 14
REMARK SMILES IDX 19 15 20 16 25 18 3 20 4 21 5 22 12 23 6 24 10 25 7 26 8 27
REMARK SMILES IDX 11 28 9 30
REMARK H PARENT 23 11 17 13 20 17 25 19 11 29 9 31
ROOT
ATOM      1  C   UNL     1      -6.081  -2.087 -29.649  1.00  0.00     0.331 C 
ATOM      2  O   UNL     1      -5.040  -1.868 -29.046  1.00  0.00    -0.247 OA
ENDROOT
BRANCH   1   3
ATOM      3  O   UNL     1      -6.359  -1.700 -30.916  1.00  0.00    -0.456 OA
BRANCH   3   4
ATOM      4  C   UNL     1      -6.988  -0.408 -31.052  1.00  0.00     0.211 C 
ATOM      5  C   UNL     1      -7.909   1.764 -32.863  1.00  0.00     0.082 C 
ATOM      6  C   UNL     1      -6.625   1.910 -32.048  1.00  0.00     0.150 C 
ATOM      7  C   UNL     1      -8.900   0.799 -32.199  1.00  0.00     0.167 C 
ATOM      8  C   UNL     1      -5.983   0.552 -31.715  1.00  0.00     0.184 C 
ATOM      9  C   UNL     1      -8.250  -0.553 -31.909  1.00  0.00     0.095 C 
BRANCH   6  10
ATOM     10  O   UNL     1      -6.874   2.612 -30.820  1.00  0.00    -0.390 OA
ATOM     11  H   UNL     1      -6.212   3.328 -30.733  1.00  0.00     0.211 HD
ENDBRANCH   6  10
BRANCH   7  12
ATOM     12  O   UNL     1      -9.344   1.396 -30.960  1.00  0.00    -0.378 OA
ATOM     13  H   UNL     1      -9.920   0.741 -30.510  1.00  0.00     0.212 HD
ENDBRANCH   7  12
BRANCH   7  14
ATOM     14  C   UNL     1     -10.118   0.634 -33.121  1.00  0.00     0.335 C 
ATOM     15  O   UNL     1     -10.280  -0.278 -33.915  1.00  0.00    -0.249 OA
BRANCH  14  16
ATOM     16  O   UNL     1     -11.005   1.650 -32.965  1.00  0.00    -0.479 OA
ATOM     17  H   UNL     1     -10.662   2.287 -32.297  1.00  0.00     0.296 HD
ENDBRANCH  14  16
ENDBRANCH   7  14
BRANCH   8  18
ATOM     18  O   UNL     1      -4.875   0.773 -30.831  1.00  0.00    -0.387 OA
ATOM     19  H   UNL     1      -5.263   1.099 -29.992  1.00  0.00     0.211 HD
ENDBRANCH   8  18
ENDBRANCH   3   4
ENDBRANCH   1   3
BRANCH   1  20
ATOM     20  C   UNL     1      -7.219  -2.791 -29.022  1.00  0.00     0.094 C 
ATOM     21  C   UNL     1      -8.066  -3.594 -29.686  1.00  0.00     0.016 C 
BRANCH  21  22
ATOM     22  C   UNL     1      -9.184  -4.294 -29.041  1.00  0.00    -0.021 A 
ATOM     23  C   UNL     1      -9.678  -3.905 -27.785  1.00  0.00     0.058 A 
ATOM     24  C   UNL     1      -9.809  -5.345 -29.731  1.00  0.00     0.012 A 
ATOM     25  C   UNL     1     -10.762  -4.583 -27.235  1.00  0.00     0.157 A 
ATOM     26  C   UNL     1     -10.896  -6.021 -29.169  1.00  0.00     0.051 A 
ATOM     27  C   UNL     1     -11.361  -5.634 -27.923  1.00  0.00     0.157 A 
BRANCH  25  28
ATOM     28  O   UNL     1     -11.282  -4.246 -26.015  1.00  0.00    -0.504 OA
ATOM     29  H   UNL     1     -12.140  -3.813 -26.157  1.00  0.00     0.293 HD
ENDBRANCH  25  28
BRANCH  27  30
ATOM     30  O   UNL     1     -12.424  -6.291 -27.375  1.00  0.00    -0.504 OA
ATOM     31  H   UNL     1     -12.614  -7.017 -28.002  1.00  0.00     0.293 HD
ENDBRANCH  27  30
ENDBRANCH  21  22
ENDBRANCH   1  20
TORSDOF 11
ENDMDL
MODEL 5
REMARK VINA RESULT:      -7.8      5.535      7.242
REMARK SMILES O=C(/C=C/c1ccc(O)c(O)c1)O[C@@H]1C[C@](O)(C(=O)O)C[C@@H](O)[C@H]1O
REMARK SMILES IDX 2 1 1 2 13 3 14 4 21 5 22 6 16 7 24 8 15 9 23 10 17 12 18 14
REMARK SMILES IDX 19 15 20 16 25 18 3 20 4 21 5 22 12 23 6 24 10 25 7 26 8 27
REMARK SMILES IDX 11 28 9 30
REMARK H PARENT 23 11 17 13 20 17 25 19 11 29 9 31
ROOT
ATOM      1  C   UNL     1      -9.759  -4.955 -29.742  1.00  0.00     0.331 C 
ATOM      2  O   UNL     1     -10.287  -5.869 -30.361  1.00  0.00    -0.247 OA
ENDROOT
BRANCH   1   3
ATOM      3  O   UNL     1      -9.541  -4.927 -28.407  1.00  0.00    -0.456 OA
BRANCH   3   4
ATOM      4  C   UNL     1     -10.712  -4.735 -27.585  1.00  0.00     0.211 C 
ATOM      5  C   UNL     1     -11.897  -4.724 -24.857  1.00  0.00     0.082 C 
ATOM      6  C   UNL     1     -12.137  -5.891 -25.815  1.00  0.00     0.150 C 
ATOM      7  C   UNL     1     -11.602  -3.420 -25.609  1.00  0.00     0.167 C 
ATOM      8  C   UNL     1     -11.001  -6.051 -26.839  1.00  0.00     0.184 C 
ATOM      9  C   UNL     1     -10.449  -3.596 -26.595  1.00  0.00     0.095 C 
BRANCH   6  10
ATOM     10  O   UNL     1     -13.374  -5.724 -26.525  1.00  0.00    -0.390 OA
ATOM     11  H   UNL     1     -13.376  -6.337 -27.290  1.00  0.00     0.211 HD
ENDBRANCH   6  10
BRANCH   7  12
ATOM     12  O   UNL     1     -12.796  -3.036 -26.327  1.00  0.00    -0.378 OA
ATOM     13  H   UNL     1     -13.008  -2.113 -26.071  1.00  0.00     0.212 HD
ENDBRANCH   7  12
BRANCH   7  14
ATOM     14  C   UNL     1     -11.281  -2.322 -24.582  1.00  0.00     0.335 C 
ATOM     15  O   UNL     1     -10.950  -1.180 -24.855  1.00  0.00    -0.249 OA
BRANCH  14  16
ATOM     16  O   UNL     1     -11.389  -2.781 -23.310  1.00  0.00    -0.479 OA
ATOM     17  H   UNL     1     -10.782  -2.275 -22.723  1.00  0.00     0.296 HD
ENDBRANCH  14  16
ENDBRANCH   7  14
BRANCH   8  18
ATOM     18  O   UNL     1     -11.374  -7.066 -27.782  1.00  0.00    -0.387 OA
ATOM     19  H   UNL     1     -11.652  -6.589 -28.592  1.00  0.00     0.211 HD
ENDBRANCH   8  18
ENDBRANCH   3   4
ENDBRANCH   1   3
BRANCH   1  20
ATOM     20  C   UNL     1      -9.320  -3.710 -30.403  1.00  0.00     0.094 C 
ATOM     21  C   UNL     1     -10.149  -2.719 -30.769  1.00  0.00     0.016 C 
BRANCH  21  22
ATOM     22  C   UNL     1      -9.690  -1.482 -31.414  1.00  0.00    -0.021 A 
ATOM     23  C   UNL     1     -10.590  -0.496 -31.853  1.00  0.00     0.058 A 
ATOM     24  C   UNL     1      -8.310  -1.259 -31.541  1.00  0.00     0.012 A 
ATOM     25  C   UNL     1     -10.099   0.673 -32.428  1.00  0.00     0.157 A 
ATOM     26  C   UNL     1      -7.827  -0.083 -32.122  1.00  0.00     0.051 A 
ATOM     27  C   UNL     1      -8.729   0.872 -32.563  1.00  0.00     0.157 A 
BRANCH  25  28
ATOM     28  O   UNL     1     -10.931   1.664 -32.872  1.00  0.00    -0.504 OA
ATOM     29  H   UNL     1     -11.687   1.724 -32.264  1.00  0.00     0.293 HD
ENDBRANCH  25  28
BRANCH  27  30
ATOM     30  O   UNL     1      -8.258   2.022 -33.127  1.00  0.00    -0.504 OA
ATOM     31  H   UNL     1      -8.501   1.950 -34.071  1.00  0.00     0.293 HD
ENDBRANCH  27  30
ENDBRANCH  21  22
ENDBRANCH   1  20
TORSDOF 11
ENDMDL
MODEL 6
REMARK VINA RESULT:      -7.8      3.610      4.834
REMARK SMILES O=C(/C=C/c1ccc(O)c(O)c1)O[C@@H]1C[C@](O)(C(=O)O)C[C@@H](O)[C@H]1O
REMARK SMILES IDX 2 1 1 2 13 3 14 4 21 5 22 6 16 7 24 8 15 9 23 10 17 12 18 14
REMARK SMILES IDX 19 15 20 16 25 18 3 20 4 21 5 22 12 23 6 24 10 25 7 26 8 27
REMARK SMILES IDX 11 28 9 30
REMARK H PARENT 23 11 17 13 20 17 25 19 11 29 9 31
ROOT
ATOM      1  C   UNL     1      -6.875  -0.242 -31.558  1.00  0.00     0.331 C 
ATOM      2  O   UNL     1      -7.665   0.430 -32.207  1.00  0.00    -0.247 OA
ENDROOT
BRANCH   1   3
ATOM      3  O   UNL     1      -5.526  -0.133 -31.598  1.00  0.00    -0.456 OA
BRANCH   3   4
ATOM      4  C   UNL     1      -4.881   0.112 -30.330  1.00  0.00     0.211 C 
ATOM      5  C   UNL     1      -2.476   1.091 -28.878  1.00  0.00     0.082 C 
ATOM      6  C   UNL     1      -2.753  -0.405 -29.025  1.00  0.00     0.150 C 
ATOM      7  C   UNL     1      -3.766   1.919 -28.944  1.00  0.00     0.167 C 
ATOM      8  C   UNL     1      -3.591  -0.727 -30.274  1.00  0.00     0.184 C 
ATOM      9  C   UNL     1      -4.563   1.606 -30.210  1.00  0.00     0.095 C 
BRANCH   6  10
ATOM     10  O   UNL     1      -3.438  -0.914 -27.870  1.00  0.00    -0.390 OA
ATOM     11  H   UNL     1      -3.624  -0.166 -27.265  1.00  0.00     0.211 HD
ENDBRANCH   6  10
BRANCH   7  12
ATOM     12  O   UNL     1      -4.563   1.600 -27.781  1.00  0.00    -0.378 OA
ATOM     13  H   UNL     1      -5.505   1.716 -28.031  1.00  0.00     0.212 HD
ENDBRANCH   7  12
BRANCH   7  14
ATOM     14  C   UNL     1      -3.398   3.410 -28.885  1.00  0.00     0.335 C 
ATOM     15  O   UNL     1      -2.909   3.975 -27.921  1.00  0.00    -0.249 OA
BRANCH  14  16
ATOM     16  O   UNL     1      -3.703   4.047 -30.044  1.00  0.00    -0.479 OA
ATOM     17  H   UNL     1      -3.929   4.986 -29.855  1.00  0.00     0.296 HD
ENDBRANCH  14  16
ENDBRANCH   7  14
BRANCH   8  18
ATOM     18  O   UNL     1      -3.925  -2.122 -30.254  1.00  0.00    -0.387 OA
ATOM     19  H   UNL     1      -4.891  -2.163 -30.094  1.00  0.00     0.211 HD
ENDBRANCH   8  18
ENDBRANCH   3   4
ENDBRANCH   1   3
BRANCH   1  20
ATOM     20  C   UNL     1      -7.318  -1.321 -30.653  1.00  0.00     0.094 C 
ATOM     21  C   UNL     1      -8.408  -2.078 -30.860  1.00  0.00     0.016 C 
BRANCH  21  22
ATOM     22  C   UNL     1      -8.825  -3.154 -29.953  1.00  0.00    -0.021 A 
ATOM     23  C   UNL     1      -9.200  -2.901 -28.623  1.00  0.00     0.058 A 
ATOM     24  C   UNL     1      -8.904  -4.464 -30.452  1.00  0.00     0.012 A 
ATOM     25  C   UNL     1      -9.620  -3.954 -27.817  1.00  0.00     0.157 A 
ATOM     26  C   UNL     1      -9.324  -5.516 -29.633  1.00  0.00     0.051 A 
ATOM     27  C   UNL     1      -9.677  -5.250 -28.320  1.00  0.00     0.157 A 
BRANCH  25  28
ATOM     28  O   UNL     1      -9.995  -3.763 -26.515  1.00  0.00    -0.504 OA
ATOM     29  H   UNL     1      -9.587  -2.940 -26.197  1.00  0.00     0.293 HD
ENDBRANCH  25  28
BRANCH  27  30
ATOM     30  O   UNL     1     -10.091  -6.276 -27.520  1.00  0.00    -0.504 OA
ATOM     31  H   UNL     1      -9.457  -6.999 -27.702  1.00  0.00     0.293 HD
ENDBRANCH  27  30
ENDBRANCH  21  22
ENDBRANCH   1  20
TORSDOF 11
ENDMDL
MODEL 7
REMARK VINA RESULT:      -7.7      3.757      6.745
REMARK SMILES O=C(/C=C/c1ccc(O)c(O)c1)O[C@@H]1C[C@](O)(C(=O)O)C[C@@H](O)[C@H]1O
REMARK SMILES IDX 2 1 1 2 13 3 14 4 21 5 22 6 16 7 24 8 15 9 23 10 17 12 18 14
REMARK SMILES IDX 19 15 20 16 25 18 3 20 4 21 5 22 12 23 6 24 10 25 7 26 8 27
REMARK SMILES IDX 11 28 9 30
REMARK H PARENT 23 11 17 13 20 17 25 19 11 29 9 31
ROOT
ATOM      1  C   UNL     1      -8.301  -0.724 -31.254  1.00  0.00     0.331 C 
ATOM      2  O   UNL     1      -8.251  -0.748 -32.476  1.00  0.00    -0.247 OA
ENDROOT
BRANCH   1   3
ATOM      3  O   UNL     1      -9.395  -0.987 -30.502  1.00  0.00    -0.456 OA
BRANCH   3   4
ATOM      4  C   UNL     1      -9.185  -1.866 -29.376  1.00  0.00     0.211 C 
ATOM      5  C   UNL     1     -10.372  -3.713 -27.370  1.00  0.00     0.082 C 
ATOM      6  C   UNL     1      -9.962  -2.292 -26.986  1.00  0.00     0.150 C 
ATOM      7  C   UNL     1      -9.564  -4.238 -28.564  1.00  0.00     0.167 C 
ATOM      8  C   UNL     1      -9.996  -1.327 -28.183  1.00  0.00     0.184 C 
ATOM      9  C   UNL     1      -9.643  -3.279 -29.751  1.00  0.00     0.095 C 
BRANCH   6  10
ATOM     10  O   UNL     1      -8.640  -2.275 -26.422  1.00  0.00    -0.390 OA
ATOM     11  H   UNL     1      -8.136  -3.028 -26.795  1.00  0.00     0.211 HD
ENDBRANCH   6  10
BRANCH   7  12
ATOM     12  O   UNL     1      -8.188  -4.377 -28.147  1.00  0.00    -0.378 OA
ATOM     13  H   UNL     1      -7.958  -3.579 -27.625  1.00  0.00     0.212 HD
ENDBRANCH   7  12
BRANCH   7  14
ATOM     14  C   UNL     1     -10.098  -5.627 -28.946  1.00  0.00     0.335 C 
ATOM     15  O   UNL     1     -10.761  -5.876 -29.940  1.00  0.00    -0.249 OA
BRANCH  14  16
ATOM     16  O   UNL     1      -9.761  -6.563 -28.024  1.00  0.00    -0.479 OA
ATOM     17  H   UNL     1      -8.950  -6.277 -27.544  1.00  0.00     0.296 HD
ENDBRANCH  14  16
ENDBRANCH   7  14
BRANCH   8  18
ATOM     18  O   UNL     1      -9.460  -0.063 -27.769  1.00  0.00    -0.387 OA
ATOM     19  H   UNL     1      -8.690   0.104 -28.351  1.00  0.00     0.211 HD
ENDBRANCH   8  18
ENDBRANCH   3   4
ENDBRANCH   1   3
BRANCH   1  20
ATOM     20  C   UNL     1      -7.136  -0.350 -30.427  1.00  0.00     0.094 C 
ATOM     21  C   UNL     1      -5.872  -0.313 -30.878  1.00  0.00     0.016 C 
BRANCH  21  22
ATOM     22  C   UNL     1      -4.729   0.074 -30.042  1.00  0.00    -0.021 A 
ATOM     23  C   UNL     1      -4.640   1.345 -29.449  1.00  0.00     0.058 A 
ATOM     24  C   UNL     1      -3.729  -0.876 -29.784  1.00  0.00     0.012 A 
ATOM     25  C   UNL     1      -3.550   1.648 -28.638  1.00  0.00     0.157 A 
ATOM     26  C   UNL     1      -2.637  -0.562 -28.970  1.00  0.00     0.051 A 
ATOM     27  C   UNL     1      -2.558   0.701 -28.406  1.00  0.00     0.157 A 
BRANCH  25  28
ATOM     28  O   UNL     1      -3.413   2.870 -28.038  1.00  0.00    -0.504 OA
ATOM     29  H   UNL     1      -4.049   3.483 -28.444  1.00  0.00     0.293 HD
ENDBRANCH  25  28
BRANCH  27  30
ATOM     30  O   UNL     1      -1.494   1.008 -27.608  1.00  0.00    -0.504 OA
ATOM     31  H   UNL     1      -1.893   1.406 -26.809  1.00  0.00     0.293 HD
ENDBRANCH  27  30
ENDBRANCH  21  22
ENDBRANCH   1  20
TORSDOF 11
ENDMDL
MODEL 8
REMARK VINA RESULT:      -7.7      2.101      4.313
REMARK SMILES O=C(/C=C/c1ccc(O)c(O)c1)O[C@@H]1C[C@](O)(C(=O)O)C[C@@H](O)[C@H]1O
REMARK SMILES IDX 2 1 1 2 13 3 14 4 21 5 22 6 16 7 24 8 15 9 23 10 17 12 18 14
REMARK SMILES IDX 19 15 20 16 25 18 3 20 4 21 5 22 12 23 6 24 10 25 7 26 8 27
REMARK SMILES IDX 11 28 9 30
REMARK H PARENT 23 11 17 13 20 17 25 19 11 29 9 31
ROOT
ATOM      1  C   UNL     1      -7.319  -3.074 -28.493  1.00  0.00     0.331 C 
ATOM      2  O   UNL     1      -8.003  -4.053 -28.226  1.00  0.00    -0.247 OA
ENDROOT
BRANCH   1   3
ATOM      3  O   UNL     1      -6.033  -2.881 -28.118  1.00  0.00    -0.456 OA
BRANCH   3   4
ATOM      4  C   UNL     1      -5.669  -1.519 -27.809  1.00  0.00     0.211 C 
ATOM      5  C   UNL     1      -3.752   0.337 -26.496  1.00  0.00     0.082 C 
ATOM      6  C   UNL     1      -5.102   0.017 -25.855  1.00  0.00     0.150 C 
ATOM      7  C   UNL     1      -3.789   0.169 -28.020  1.00  0.00     0.167 C 
ATOM      8  C   UNL     1      -5.640  -1.361 -26.278  1.00  0.00     0.184 C 
ATOM      9  C   UNL     1      -4.293  -1.219 -28.414  1.00  0.00     0.095 C 
BRANCH   6  10
ATOM     10  O   UNL     1      -6.079   1.014 -26.195  1.00  0.00    -0.390 OA
ATOM     11  H   UNL     1      -6.895   0.559 -26.492  1.00  0.00     0.211 HD
ENDBRANCH   6  10
BRANCH   7  12
ATOM     12  O   UNL     1      -4.674   1.175 -28.561  1.00  0.00    -0.378 OA
ATOM     13  H   UNL     1      -5.593   0.879 -28.388  1.00  0.00     0.212 HD
ENDBRANCH   7  12
BRANCH   7  14
ATOM     14  C   UNL     1      -2.377   0.416 -28.576  1.00  0.00     0.335 C 
ATOM     15  O   UNL     1      -2.007   0.131 -29.703  1.00  0.00    -0.249 OA
BRANCH  14  16
ATOM     16  O   UNL     1      -1.565   0.978 -27.646  1.00  0.00    -0.479 OA
ATOM     17  H   UNL     1      -0.900   0.317 -27.345  1.00  0.00     0.296 HD
ENDBRANCH  14  16
ENDBRANCH   7  14
BRANCH   8  18
ATOM     18  O   UNL     1      -6.966  -1.516 -25.753  1.00  0.00    -0.387 OA
ATOM     19  H   UNL     1      -7.569  -1.178 -26.448  1.00  0.00     0.211 HD
ENDBRANCH   8  18
ENDBRANCH   3   4
ENDBRANCH   1   3
BRANCH   1  20
ATOM     20  C   UNL     1      -7.855  -1.925 -29.251  1.00  0.00     0.094 C 
ATOM     21  C   UNL     1      -7.998  -1.904 -30.585  1.00  0.00     0.016 C 
BRANCH  21  22
ATOM     22  C   UNL     1      -8.544  -0.754 -31.319  1.00  0.00    -0.021 A 
ATOM     23  C   UNL     1      -9.479  -0.912 -32.355  1.00  0.00     0.058 A 
ATOM     24  C   UNL     1      -8.160   0.538 -30.929  1.00  0.00     0.012 A 
ATOM     25  C   UNL     1      -9.990   0.214 -32.994  1.00  0.00     0.157 A 
ATOM     26  C   UNL     1      -8.677   1.663 -31.579  1.00  0.00     0.051 A 
ATOM     27  C   UNL     1      -9.587   1.488 -32.609  1.00  0.00     0.157 A 
BRANCH  25  28
ATOM     28  O   UNL     1     -10.902   0.116 -34.010  1.00  0.00    -0.504 OA
ATOM     29  H   UNL     1     -10.909  -0.802 -34.328  1.00  0.00     0.293 HD
ENDBRANCH  25  28
BRANCH  27  30
ATOM     30  O   UNL     1     -10.095   2.586 -33.242  1.00  0.00    -0.504 OA
ATOM     31  H   UNL     1      -9.776   2.507 -34.163  1.00  0.00     0.293 HD
ENDBRANCH  27  30
ENDBRANCH  21  22
ENDBRANCH   1  20
TORSDOF 11
ENDMDL
MODEL 9
REMARK VINA RESULT:      -7.7      4.812      8.107
REMARK SMILES O=C(/C=C/c1ccc(O)c(O)c1)O[C@@H]1C[C@](O)(C(=O)O)C[C@@H](O)[C@H]1O
REMARK SMILES IDX 2 1 1 2 13 3 14 4 21 5 22 6 16 7 24 8 15 9 23 10 17 12 18 14
REMARK SMILES IDX 19 15 20 16 25 18 3 20 4 21 5 22 12 23 6 24 10 25 7 26 8 27
REMARK SMILES IDX 11 28 9 30
REMARK H PARENT 23 11 17 13 20 17 25 19 11 29 9 31
ROOT
ATOM      1  C   UNL     1      -7.932  -1.157 -25.669  1.00  0.00     0.331 C 
ATOM      2  O   UNL     1      -7.774  -1.331 -24.468  1.00  0.00    -0.247 OA
ENDROOT
BRANCH   1   3
ATOM      3  O   UNL     1      -9.081  -1.368 -26.354  1.00  0.00    -0.456 OA
BRANCH   3   4
ATOM      4  C   UNL     1      -9.872  -2.494 -25.917  1.00  0.00     0.211 C 
ATOM      5  C   UNL     1     -12.362  -4.090 -26.228  1.00  0.00     0.082 C 
ATOM      6  C   UNL     1     -12.196  -3.109 -25.069  1.00  0.00     0.150 C 
ATOM      7  C   UNL     1     -11.010  -4.605 -26.739  1.00  0.00     0.167 C 
ATOM      8  C   UNL     1     -11.224  -1.965 -25.403  1.00  0.00     0.184 C 
ATOM      9  C   UNL     1     -10.075  -3.451 -27.096  1.00  0.00     0.095 C 
BRANCH   6  10
ATOM     10  O   UNL     1     -11.722  -3.782 -23.891  1.00  0.00    -0.390 OA
ATOM     11  H   UNL     1     -10.771  -3.983 -24.011  1.00  0.00     0.211 HD
ENDBRANCH   6  10
BRANCH   7  12
ATOM     12  O   UNL     1     -10.412  -5.404 -25.694  1.00  0.00    -0.378 OA
ATOM     13  H   UNL     1     -10.756  -5.072 -24.837  1.00  0.00     0.212 HD
ENDBRANCH   7  12
BRANCH   7  14
ATOM     14  C   UNL     1     -11.257  -5.508 -27.958  1.00  0.00     0.335 C 
ATOM     15  O   UNL     1     -10.790  -5.328 -29.070  1.00  0.00    -0.249 OA
BRANCH  14  16
ATOM     16  O   UNL     1     -12.087  -6.538 -27.657  1.00  0.00    -0.479 OA
ATOM     17  H   UNL     1     -11.793  -6.967 -26.821  1.00  0.00     0.296 HD
ENDBRANCH  14  16
ENDBRANCH   7  14
BRANCH   8  18
ATOM     18  O   UNL     1     -11.014  -1.180 -24.220  1.00  0.00    -0.387 OA
ATOM     19  H   UNL     1     -11.209  -0.255 -24.475  1.00  0.00     0.211 HD
ENDBRANCH   8  18
ENDBRANCH   3   4
ENDBRANCH   1   3
BRANCH   1  20
ATOM     20  C   UNL     1      -6.832  -0.720 -26.552  1.00  0.00     0.094 C 
ATOM     21  C   UNL     1      -5.653  -1.354 -26.657  1.00  0.00     0.016 C 
BRANCH  21  22
ATOM     22  C   UNL     1      -4.576  -0.909 -27.550  1.00  0.00    -0.021 A 
ATOM     23  C   UNL     1      -3.578  -0.017 -27.123  1.00  0.00     0.058 A 
ATOM     24  C   UNL     1      -4.515  -1.438 -28.849  1.00  0.00     0.012 A 
ATOM     25  C   UNL     1      -2.561   0.346 -28.001  1.00  0.00     0.157 A 
ATOM     26  C   UNL     1      -3.491  -1.066 -29.725  1.00  0.00     0.051 A 
ATOM     27  C   UNL     1      -2.523  -0.174 -29.291  1.00  0.00     0.157 A 
BRANCH  25  28
ATOM     28  O   UNL     1      -1.566   1.211 -27.637  1.00  0.00    -0.504 OA
ATOM     29  H   UNL     1      -1.534   1.248 -26.666  1.00  0.00     0.293 HD
ENDBRANCH  25  28
BRANCH  27  30
ATOM     30  O   UNL     1      -1.521   0.187 -30.144  1.00  0.00    -0.504 OA
ATOM     31  H   UNL     1      -0.700  -0.085 -29.687  1.00  0.00     0.293 HD
ENDBRANCH  27  30
ENDBRANCH  21  22
ENDBRANCH   1  20
TORSDOF 11
ENDMDL
MODEL 10
REMARK VINA RESULT:      -7.7      1.205      2.958
REMARK SMILES O=C(/C=C/c1ccc(O)c(O)c1)O[C@@H]1C[C@](O)(C(=O)O)C[C@@H](O)[C@H]1O
REMARK SMILES IDX 2 1 1 2 13 3 14 4 21 5 22 6 16 7 24 8 15 9 23 10 17 12 18 14
REMARK SMILES IDX 19 15 20 16 25 18 3 20 4 21 5 22 12 23 6 24 10 25 7 26 8 27
REMARK SMILES IDX 11 28 9 30
REMARK H PARENT 23 11 17 13 20 17 25 19 11 29 9 31
ROOT
ATOM      1  C   UNL     1      -5.357   3.495 -29.839  1.00  0.00     0.331 C 
ATOM      2  O   UNL     1      -4.676   4.210 -30.562  1.00  0.00    -0.247 OA
ENDROOT
BRANCH   1   3
ATOM      3  O   UNL     1      -5.071   3.165 -28.558  1.00  0.00    -0.456 OA
BRANCH   3   4
ATOM      4  C   UNL     1      -4.476   1.864 -28.365  1.00  0.00     0.211 C 
ATOM      5  C   UNL     1      -4.363  -0.996 -29.175  1.00  0.00     0.082 C 
ATOM      6  C   UNL     1      -5.073  -0.569 -27.892  1.00  0.00     0.150 C 
ATOM      7  C   UNL     1      -3.263  -0.004 -29.576  1.00  0.00     0.167 C 
ATOM      8  C   UNL     1      -5.588   0.879 -27.959  1.00  0.00     0.184 C 
ATOM      9  C   UNL     1      -3.806   1.421 -29.670  1.00  0.00     0.095 C 
BRANCH   6  10
ATOM     10  O   UNL     1      -4.200  -0.691 -26.758  1.00  0.00    -0.390 OA
ATOM     11  H   UNL     1      -4.241  -1.615 -26.434  1.00  0.00     0.211 HD
ENDBRANCH   6  10
BRANCH   7  12
ATOM     12  O   UNL     1      -2.224  -0.059 -28.572  1.00  0.00    -0.378 OA
ATOM     13  H   UNL     1      -2.649   0.096 -27.702  1.00  0.00     0.212 HD
ENDBRANCH   7  12
BRANCH   7  14
ATOM     14  C   UNL     1      -2.663  -0.451 -30.918  1.00  0.00     0.335 C 
ATOM     15  O   UNL     1      -3.093  -1.356 -31.614  1.00  0.00    -0.249 OA
BRANCH  14  16
ATOM     16  O   UNL     1      -1.564   0.277 -31.241  1.00  0.00    -0.479 OA
ATOM     17  H   UNL     1      -0.913  -0.297 -31.706  1.00  0.00     0.296 HD
ENDBRANCH  14  16
ENDBRANCH   7  14
BRANCH   8  18
ATOM     18  O   UNL     1      -6.106   1.242 -26.672  1.00  0.00    -0.387 OA
ATOM     19  H   UNL     1      -6.818   1.893 -26.844  1.00  0.00     0.211 HD
ENDBRANCH   8  18
ENDBRANCH   3   4
ENDBRANCH   1   3
BRANCH   1  20
ATOM     20  C   UNL     1      -6.597   2.850 -30.314  1.00  0.00     0.094 C 
ATOM     21  C   UNL     1      -6.686   2.125 -31.441  1.00  0.00     0.016 C 
BRANCH  21  22
ATOM     22  C   UNL     1      -7.927   1.482 -31.890  1.00  0.00    -0.021 A 
ATOM     23  C   UNL     1      -8.939   1.113 -30.989  1.00  0.00     0.058 A 
ATOM     24  C   UNL     1      -8.125   1.285 -33.266  1.00  0.00     0.012 A 
ATOM     25  C   UNL     1     -10.110   0.537 -31.473  1.00  0.00     0.157 A 
ATOM     26  C   UNL     1      -9.303   0.702 -33.742  1.00  0.00     0.051 A 
ATOM     27  C   UNL     1     -10.286   0.331 -32.837  1.00  0.00     0.157 A 
BRANCH  25  28
ATOM     28  O   UNL     1     -11.127   0.158 -30.639  1.00  0.00    -0.504 OA
ATOM     29  H   UNL     1     -11.550   0.960 -30.288  1.00  0.00     0.293 HD
ENDBRANCH  25  28
BRANCH  27  30
ATOM     30  O   UNL     1     -11.438  -0.234 -33.301  1.00  0.00    -0.504 OA
ATOM     31  H   UNL     1     -11.657   0.280 -34.104  1.00  0.00     0.293 HD
ENDBRANCH  27  30
ENDBRANCH  21  22
ENDBRANCH   1  20
TORSDOF 11
ENDMDL
