MODEL 1
REMARK VINA RESULT:      -6.2      0.000      0.000
REMARK SMILES O=C(O)c1ccc(O)c(O)c1
REMARK SMILES IDX 5 1 6 2 7 3 9 4 11 5 4 6 2 7 1 8 3 9 8 11 10 13
REMARK H PARENT 3 10 8 12 10 14
ROOT
ATOM      1  C   UNL     1      -1.578 -11.226 -27.832  1.00  0.00     0.020 A 
ATOM      2  C   UNL     1      -0.621 -12.182 -27.476  1.00  0.00     0.051 A 
ATOM      3  C   UNL     1       0.266 -11.895 -26.447  1.00  0.00     0.157 A 
ATOM      4  C   UNL     1       0.210 -10.668 -25.787  1.00  0.00     0.158 A 
ATOM      5  C   UNL     1      -0.730  -9.708 -26.134  1.00  0.00     0.065 A 
ATOM      6  C   UNL     1      -1.642  -9.998 -27.154  1.00  0.00     0.063 A 
ENDROOT
BRANCH   6   7
ATOM      7  C   UNL     1      -2.673  -9.020 -27.574  1.00  0.00     0.335 C 
ATOM      8  O   UNL     1      -2.927  -8.790 -28.743  1.00  0.00    -0.246 OA
BRANCH   7   9
ATOM      9  O   UNL     1      -3.339  -8.462 -26.542  1.00  0.00    -0.478 OA
ATOM     10  H   UNL     1      -2.875  -7.726 -26.100  1.00  0.00     0.297 HD
ENDBRANCH   7   9
ENDBRANCH   6   7
BRANCH   3  11
ATOM     11  O   UNL     1       1.224 -12.785 -26.048  1.00  0.00    -0.504 OA
ATOM     12  H   UNL     1       1.892 -12.305 -25.529  1.00  0.00     0.293 HD
ENDBRANCH   3  11
BRANCH   4  13
ATOM     13  O   UNL     1       1.094 -10.392 -24.784  1.00  0.00    -0.504 OA
ATOM     14  H   UNL     1       1.960 -10.302 -25.232  1.00  0.00     0.293 HD
ENDBRANCH   4  13
TORSDOF 4
ENDMDL
MODEL 2
REMARK VINA RESULT:      -6.2      0.808      1.972
REMARK SMILES O=C(O)c1ccc(O)c(O)c1
REMARK SMILES IDX 5 1 6 2 7 3 9 4 11 5 4 6 2 7 1 8 3 9 8 11 10 13
REMARK H PARENT 3 10 8 12 10 14
ROOT
ATOM      1  C   UNL     1      -0.889  -9.314 -26.262  1.00  0.00     0.020 A 
ATOM      2  C   UNL     1       0.148 -10.096 -25.744  1.00  0.00     0.051 A 
ATOM      3  C   UNL     1       0.254 -11.423 -26.143  1.00  0.00     0.157 A 
ATOM      4  C   UNL     1      -0.666 -11.968 -27.037  1.00  0.00     0.158 A 
ATOM      5  C   UNL     1      -1.704 -11.204 -27.554  1.00  0.00     0.065 A 
ATOM      6  C   UNL     1      -1.805  -9.861 -27.175  1.00  0.00     0.063 A 
ENDROOT
BRANCH   6   7
ATOM      7  C   UNL     1      -2.886  -8.990 -27.690  1.00  0.00     0.335 C 
ATOM      8  O   UNL     1      -3.110  -8.848 -28.880  1.00  0.00    -0.246 OA
BRANCH   7   9
ATOM      9  O   UNL     1      -3.634  -8.426 -26.719  1.00  0.00    -0.478 OA
ATOM     10  H   UNL     1      -4.092  -9.056 -26.132  1.00  0.00     0.297 HD
ENDBRANCH   7   9
ENDBRANCH   6   7
BRANCH   3  11
ATOM     11  O   UNL     1       1.244 -12.241 -25.676  1.00  0.00    -0.504 OA
ATOM     12  H   UNL     1       1.921 -11.691 -25.247  1.00  0.00     0.293 HD
ENDBRANCH   3  11
BRANCH   4  13
ATOM     13  O   UNL     1      -0.559 -13.275 -27.414  1.00  0.00    -0.504 OA
ATOM     14  H   UNL     1       0.355 -13.362 -27.754  1.00  0.00     0.293 HD
ENDBRANCH   4  13
TORSDOF 4
ENDMDL
MODEL 3
REMARK VINA RESULT:      -5.9     13.435     14.982
REMARK SMILES O=C(O)c1ccc(O)c(O)c1
REMARK SMILES IDX 5 1 6 2 7 3 9 4 11 5 4 6 2 7 1 8 3 9 8 11 10 13
REMARK H PARENT 3 10 8 12 10 14
ROOT
ATOM      1  C   UNL     1       7.852  -0.779 -19.244  1.00  0.00     0.020 A 
ATOM      2  C   UNL     1       8.268  -0.132 -18.076  1.00  0.00     0.051 A 
ATOM      3  C   UNL     1       7.606  -0.402 -16.885  1.00  0.00     0.157 A 
ATOM      4  C   UNL     1       6.537  -1.296 -16.857  1.00  0.00     0.158 A 
ATOM      5  C   UNL     1       6.110  -1.941 -18.009  1.00  0.00     0.065 A 
ATOM      6  C   UNL     1       6.785  -1.692 -19.209  1.00  0.00     0.063 A 
ENDROOT
BRANCH   6   7
ATOM      7  C   UNL     1       6.382  -2.347 -20.475  1.00  0.00     0.335 C 
ATOM      8  O   UNL     1       5.771  -1.765 -21.354  1.00  0.00    -0.246 OA
BRANCH   7   9
ATOM      9  O   UNL     1       6.812  -3.621 -20.584  1.00  0.00    -0.478 OA
ATOM     10  H   UNL     1       6.995  -3.919 -21.495  1.00  0.00     0.297 HD
ENDBRANCH   7   9
ENDBRANCH   6   7
BRANCH   3  11
ATOM     11  O   UNL     1       7.963   0.195 -15.708  1.00  0.00    -0.504 OA
ATOM     12  H   UNL     1       7.286  -0.012 -15.041  1.00  0.00     0.293 HD
ENDBRANCH   3  11
BRANCH   4  13
ATOM     13  O   UNL     1       5.887  -1.546 -15.682  1.00  0.00    -0.504 OA
ATOM     14  H   UNL     1       5.871  -2.522 -15.610  1.00  0.00     0.293 HD
ENDBRANCH   4  13
TORSDOF 4
ENDMDL
MODEL 4
REMARK VINA RESULT:      -5.9      1.140      4.454
REMARK SMILES O=C(O)c1ccc(O)c(O)c1
REMARK SMILES IDX 5 1 6 2 7 3 9 4 11 5 4 6 2 7 1 8 3 9 8 11 10 13
REMARK H PARENT 3 10 8 12 10 14
ROOT
ATOM      1  C   UNL     1       0.374  -9.611 -26.586  1.00  0.00     0.020 A 
ATOM      2  C   UNL     1      -0.421  -8.668 -27.244  1.00  0.00     0.051 A 
ATOM      3  C   UNL     1      -1.696  -9.034 -27.657  1.00  0.00     0.157 A 
ATOM      4  C   UNL     1      -2.170 -10.324 -27.429  1.00  0.00     0.158 A 
ATOM      5  C   UNL     1      -1.389 -11.273 -26.782  1.00  0.00     0.065 A 
ATOM      6  C   UNL     1      -0.113 -10.906 -26.343  1.00  0.00     0.063 A 
ENDROOT
BRANCH   6   7
ATOM      7  C   UNL     1       0.772 -11.868 -25.645  1.00  0.00     0.335 C 
ATOM      8  O   UNL     1       0.999 -12.986 -26.073  1.00  0.00    -0.246 OA
BRANCH   7   9
ATOM      9  O   UNL     1       1.348 -11.364 -24.534  1.00  0.00    -0.478 OA
ATOM     10  H   UNL     1       0.748 -11.255 -23.772  1.00  0.00     0.297 HD
ENDBRANCH   7   9
ENDBRANCH   6   7
BRANCH   3  11
ATOM     11  O   UNL     1      -2.525  -8.160 -28.303  1.00  0.00    -0.504 OA
ATOM     12  H   UNL     1      -2.037  -7.334 -28.463  1.00  0.00     0.293 HD
ENDBRANCH   3  11
BRANCH   4  13
ATOM     13  O   UNL     1      -3.421 -10.676 -27.849  1.00  0.00    -0.504 OA
ATOM     14  H   UNL     1      -3.824 -11.125 -27.079  1.00  0.00     0.293 HD
ENDBRANCH   4  13
TORSDOF 4
ENDMDL
MODEL 5
REMARK VINA RESULT:      -5.8      2.356      3.437
REMARK SMILES O=C(O)c1ccc(O)c(O)c1
REMARK SMILES IDX 5 1 6 2 7 3 9 4 11 5 4 6 2 7 1 8 3 9 8 11 10 13
REMARK H PARENT 3 10 8 12 10 14
ROOT
ATOM      1  C   UNL     1      -3.502  -8.615 -26.959  1.00  0.00     0.020 A 
ATOM      2  C   UNL     1      -2.158  -8.256 -27.105  1.00  0.00     0.051 A 
ATOM      3  C   UNL     1      -1.232  -9.236 -27.437  1.00  0.00     0.157 A 
ATOM      4  C   UNL     1      -1.634 -10.559 -27.610  1.00  0.00     0.158 A 
ATOM      5  C   UNL     1      -2.964 -10.931 -27.462  1.00  0.00     0.065 A 
ATOM      6  C   UNL     1      -3.907  -9.946 -27.150  1.00  0.00     0.063 A 
ENDROOT
BRANCH   6   7
ATOM      7  C   UNL     1      -5.341 -10.273 -26.979  1.00  0.00     0.335 C 
ATOM      8  O   UNL     1      -5.726 -11.335 -26.521  1.00  0.00    -0.246 OA
BRANCH   7   9
ATOM      9  O   UNL     1      -6.170  -9.263 -27.316  1.00  0.00    -0.478 OA
ATOM     10  H   UNL     1      -6.695  -9.412 -28.125  1.00  0.00     0.297 HD
ENDBRANCH   7   9
ENDBRANCH   6   7
BRANCH   3  11
ATOM     11  O   UNL     1       0.096  -8.953 -27.597  1.00  0.00    -0.504 OA
ATOM     12  H   UNL     1       0.551  -9.131 -26.757  1.00  0.00     0.293 HD
ENDBRANCH   3  11
BRANCH   4  13
ATOM     13  O   UNL     1      -0.714 -11.517 -27.926  1.00  0.00    -0.504 OA
ATOM     14  H   UNL     1      -1.040 -12.330 -27.490  1.00  0.00     0.293 HD
ENDBRANCH   4  13
TORSDOF 4
ENDMDL
MODEL 6
REMARK VINA RESULT:      -5.7      0.938      4.091
REMARK SMILES O=C(O)c1ccc(O)c(O)c1
REMARK SMILES IDX 5 1 6 2 7 3 9 4 11 5 4 6 2 7 1 8 3 9 8 11 10 13
REMARK H PARENT 3 10 8 12 10 14
ROOT
ATOM      1  C   UNL     1      -0.662 -11.755 -27.525  1.00  0.00     0.020 A 
ATOM      2  C   UNL     1      -1.567 -10.918 -28.185  1.00  0.00     0.051 A 
ATOM      3  C   UNL     1      -1.883  -9.690 -27.619  1.00  0.00     0.157 A 
ATOM      4  C   UNL     1      -1.316  -9.303 -26.406  1.00  0.00     0.158 A 
ATOM      5  C   UNL     1      -0.420 -10.127 -25.737  1.00  0.00     0.065 A 
ATOM      6  C   UNL     1      -0.079 -11.356 -26.312  1.00  0.00     0.063 A 
ENDROOT
BRANCH   6   7
ATOM      7  C   UNL     1       0.870 -12.282 -25.652  1.00  0.00     0.335 C 
ATOM      8  O   UNL     1       1.232 -13.329 -26.161  1.00  0.00    -0.246 OA
BRANCH   7   9
ATOM      9  O   UNL     1       1.340 -11.824 -24.473  1.00  0.00    -0.478 OA
ATOM     10  H   UNL     1       2.306 -11.899 -24.356  1.00  0.00     0.297 HD
ENDBRANCH   7   9
ENDBRANCH   6   7
BRANCH   3  11
ATOM     11  O   UNL     1      -2.759  -8.824 -28.213  1.00  0.00    -0.504 OA
ATOM     12  H   UNL     1      -3.441  -9.343 -28.673  1.00  0.00     0.293 HD
ENDBRANCH   3  11
BRANCH   4  13
ATOM     13  O   UNL     1      -1.642  -8.098 -25.854  1.00  0.00    -0.504 OA
ATOM     14  H   UNL     1      -0.818  -7.572 -25.900  1.00  0.00     0.293 HD
ENDBRANCH   4  13
TORSDOF 4
ENDMDL
MODEL 7
REMARK VINA RESULT:      -5.7     13.958     15.481
REMARK SMILES O=C(O)c1ccc(O)c(O)c1
REMARK SMILES IDX 5 1 6 2 7 3 9 4 11 5 4 6 2 7 1 8 3 9 8 11 10 13
REMARK H PARENT 3 10 8 12 10 14
ROOT
ATOM      1  C   UNL     1       6.318  -1.952 -17.565  1.00  0.00     0.020 A 
ATOM      2  C   UNL     1       6.695  -1.337 -16.367  1.00  0.00     0.051 A 
ATOM      3  C   UNL     1       7.627  -0.307 -16.403  1.00  0.00     0.157 A 
ATOM      4  C   UNL     1       8.186   0.098 -17.614  1.00  0.00     0.158 A 
ATOM      5  C   UNL     1       7.825  -0.507 -18.811  1.00  0.00     0.065 A 
ATOM      6  C   UNL     1       6.870  -1.529 -18.785  1.00  0.00     0.063 A 
ENDROOT
BRANCH   6   7
ATOM      7  C   UNL     1       6.439  -2.217 -20.024  1.00  0.00     0.335 C 
ATOM      8  O   UNL     1       5.923  -1.631 -20.959  1.00  0.00    -0.246 OA
BRANCH   7   9
ATOM      9  O   UNL     1       6.732  -3.534 -20.041  1.00  0.00    -0.478 OA
ATOM     10  H   UNL     1       7.469  -3.801 -19.459  1.00  0.00     0.297 HD
ENDBRANCH   7   9
ENDBRANCH   6   7
BRANCH   3  11
ATOM     11  O   UNL     1       8.038   0.337 -15.270  1.00  0.00    -0.504 OA
ATOM     12  H   UNL     1       8.985   0.540 -15.358  1.00  0.00     0.293 HD
ENDBRANCH   3  11
BRANCH   4  13
ATOM     13  O   UNL     1       9.109   1.104 -17.637  1.00  0.00    -0.504 OA
ATOM     14  H   UNL     1       9.757   0.832 -18.318  1.00  0.00     0.293 HD
ENDBRANCH   4  13
TORSDOF 4
ENDMDL
MODEL 8
REMARK VINA RESULT:      -5.6     12.293     14.179
REMARK SMILES O=C(O)c1ccc(O)c(O)c1
REMARK SMILES IDX 5 1 6 2 7 3 9 4 11 5 4 6 2 7 1 8 3 9 8 11 10 13
REMARK H PARENT 3 10 8 12 10 14
ROOT
ATOM      1  C   UNL     1      -8.189   1.350 -32.942  1.00  0.00     0.020 A 
ATOM      2  C   UNL     1      -6.853   1.166 -32.573  1.00  0.00     0.051 A 
ATOM      3  C   UNL     1      -6.518   0.076 -31.780  1.00  0.00     0.157 A 
ATOM      4  C   UNL     1      -7.500  -0.813 -31.349  1.00  0.00     0.158 A 
ATOM      5  C   UNL     1      -8.832  -0.640 -31.703  1.00  0.00     0.065 A 
ATOM      6  C   UNL     1      -9.174   0.443 -32.520  1.00  0.00     0.063 A 
ENDROOT
BRANCH   6   7
ATOM      7  C   UNL     1     -10.575   0.686 -32.936  1.00  0.00     0.335 C 
ATOM      8  O   UNL     1     -11.387  -0.212 -33.078  1.00  0.00    -0.246 OA
BRANCH   7   9
ATOM      9  O   UNL     1     -10.877   1.993 -33.077  1.00  0.00    -0.478 OA
ATOM     10  H   UNL     1     -10.686   2.548 -32.297  1.00  0.00     0.297 HD
ENDBRANCH   7   9
ENDBRANCH   6   7
BRANCH   3  11
ATOM     11  O   UNL     1      -5.231  -0.162 -31.386  1.00  0.00    -0.504 OA
ATOM     12  H   UNL     1      -4.825   0.685 -31.133  1.00  0.00     0.293 HD
ENDBRANCH   3  11
BRANCH   4  13
ATOM     13  O   UNL     1      -7.161  -1.875 -30.561  1.00  0.00    -0.504 OA
ATOM     14  H   UNL     1      -7.815  -2.569 -30.783  1.00  0.00     0.293 HD
ENDBRANCH   4  13
TORSDOF 4
ENDMDL
MODEL 9
REMARK VINA RESULT:      -5.6      9.983     10.943
REMARK SMILES O=C(O)c1ccc(O)c(O)c1
REMARK SMILES IDX 5 1 6 2 7 3 9 4 11 5 4 6 2 7 1 8 3 9 8 11 10 13
REMARK H PARENT 3 10 8 12 10 14
ROOT
ATOM      1  C   UNL     1      -3.060   0.511 -27.211  1.00  0.00     0.020 A 
ATOM      2  C   UNL     1      -2.278   0.787 -28.337  1.00  0.00     0.051 A 
ATOM      3  C   UNL     1      -2.443   0.011 -29.478  1.00  0.00     0.157 A 
ATOM      4  C   UNL     1      -3.365  -1.034 -29.495  1.00  0.00     0.158 A 
ATOM      5  C   UNL     1      -4.144  -1.323 -28.382  1.00  0.00     0.065 A 
ATOM      6  C   UNL     1      -4.000  -0.532 -27.237  1.00  0.00     0.063 A 
ENDROOT
BRANCH   6   7
ATOM      7  C   UNL     1      -4.799  -0.785 -26.016  1.00  0.00     0.335 C 
ATOM      8  O   UNL     1      -5.361  -1.845 -25.802  1.00  0.00    -0.246 OA
BRANCH   7   9
ATOM      9  O   UNL     1      -4.790   0.243 -25.142  1.00  0.00    -0.478 OA
ATOM     10  H   UNL     1      -5.661   0.650 -24.974  1.00  0.00     0.297 HD
ENDBRANCH   7   9
ENDBRANCH   6   7
BRANCH   3  11
ATOM     11  O   UNL     1      -1.713   0.229 -30.613  1.00  0.00    -0.504 OA
ATOM     12  H   UNL     1      -2.229   0.803 -31.205  1.00  0.00     0.293 HD
ENDBRANCH   3  11
BRANCH   4  13
ATOM     13  O   UNL     1      -3.512  -1.796 -30.618  1.00  0.00    -0.504 OA
ATOM     14  H   UNL     1      -2.972  -1.344 -31.298  1.00  0.00     0.293 HD
ENDBRANCH   4  13
TORSDOF 4
ENDMDL
MODEL 10
REMARK VINA RESULT:      -5.4     12.258     14.206
REMARK SMILES O=C(O)c1ccc(O)c(O)c1
REMARK SMILES IDX 5 1 6 2 7 3 9 4 11 5 4 6 2 7 1 8 3 9 8 11 10 13
REMARK H PARENT 3 10 8 12 10 14
ROOT
ATOM      1  C   UNL     1      -9.011  -0.860 -31.754  1.00  0.00     0.020 A 
ATOM      2  C   UNL     1      -7.765  -1.207 -31.221  1.00  0.00     0.051 A 
ATOM      3  C   UNL     1      -6.684  -0.361 -31.431  1.00  0.00     0.157 A 
ATOM      4  C   UNL     1      -6.836   0.809 -32.172  1.00  0.00     0.158 A 
ATOM      5  C   UNL     1      -8.065   1.164 -32.712  1.00  0.00     0.065 A 
ATOM      6  C   UNL     1      -9.164   0.329 -32.485  1.00  0.00     0.063 A 
ENDROOT
BRANCH   6   7
ATOM      7  C   UNL     1     -10.504   0.647 -33.031  1.00  0.00     0.335 C 
ATOM      8  O   UNL     1     -11.286  -0.210 -33.404  1.00  0.00    -0.246 OA
BRANCH   7   9
ATOM      9  O   UNL     1     -10.795   1.964 -33.014  1.00  0.00    -0.478 OA
ATOM     10  H   UNL     1     -10.505   2.441 -32.213  1.00  0.00     0.297 HD
ENDBRANCH   7   9
ENDBRANCH   6   7
BRANCH   3  11
ATOM     11  O   UNL     1      -5.440  -0.641 -30.937  1.00  0.00    -0.504 OA
ATOM     12  H   UNL     1      -5.043   0.188 -30.618  1.00  0.00     0.293 HD
ENDBRANCH   3  11
BRANCH   4  13
ATOM     13  O   UNL     1      -5.764   1.628 -32.382  1.00  0.00    -0.504 OA
ATOM     14  H   UNL     1      -5.016   1.021 -32.554  1.00  0.00     0.293 HD
ENDBRANCH   4  13
TORSDOF 4
ENDMDL
