MODEL 1
REMARK VINA RESULT:      -6.3      0.000      0.000
REMARK SMILES COC(=O)c1cccc(O)c1
REMARK SMILES IDX 5 1 11 2 9 3 8 4 7 5 6 6 3 7 4 8 2 9 1 10 10 11
REMARK H PARENT 10 12
ROOT
ATOM      1  C   UNL     1       6.762  -1.710 -18.961  1.00  0.00     0.063 A 
ATOM      2  C   UNL     1       7.643  -0.623 -18.871  1.00  0.00     0.061 A 
ATOM      3  C   UNL     1       7.847  -0.010 -17.637  1.00  0.00     0.116 A 
ATOM      4  C   UNL     1       7.192  -0.459 -16.496  1.00  0.00     0.046 A 
ATOM      5  C   UNL     1       6.315  -1.540 -16.581  1.00  0.00     0.005 A 
ATOM      6  C   UNL     1       6.099  -2.164 -17.811  1.00  0.00     0.016 A 
ENDROOT
BRANCH   1   7
ATOM      7  C   UNL     1       6.494  -2.414 -20.246  1.00  0.00     0.337 C 
ATOM      8  O   UNL     1       6.811  -3.573 -20.459  1.00  0.00    -0.246 OA
BRANCH   7   9
ATOM      9  O   UNL     1       5.865  -1.590 -21.122  1.00  0.00    -0.465 OA
ATOM     10  C   UNL     1       5.229  -2.273 -22.203  1.00  0.00     0.282 C 
ENDBRANCH   7   9
ENDBRANCH   1   7
BRANCH   3  11
ATOM     11  O   UNL     1       8.695   1.050 -17.502  1.00  0.00    -0.508 OA
ATOM     12  H   UNL     1       8.611   1.624 -18.281  1.00  0.00     0.293 HD
ENDBRANCH   3  11
TORSDOF 3
ENDMDL
MODEL 2
REMARK VINA RESULT:      -5.9     13.545     15.092
REMARK SMILES COC(=O)c1cccc(O)c1
REMARK SMILES IDX 5 1 11 2 9 3 8 4 7 5 6 6 3 7 4 8 2 9 1 10 10 11
REMARK H PARENT 10 12
ROOT
ATOM      1  C   UNL     1      -1.822 -10.073 -27.249  1.00  0.00     0.063 A 
ATOM      2  C   UNL     1      -1.303 -11.375 -27.269  1.00  0.00     0.061 A 
ATOM      3  C   UNL     1      -0.140 -11.659 -26.558  1.00  0.00     0.116 A 
ATOM      4  C   UNL     1       0.515 -10.670 -25.831  1.00  0.00     0.046 A 
ATOM      5  C   UNL     1       0.003  -9.374 -25.808  1.00  0.00     0.005 A 
ATOM      6  C   UNL     1      -1.162  -9.074 -26.516  1.00  0.00     0.016 A 
ENDROOT
BRANCH   1   7
ATOM      7  C   UNL     1      -3.060  -9.697 -27.985  1.00  0.00     0.337 C 
ATOM      8  O   UNL     1      -3.093  -8.849 -28.862  1.00  0.00    -0.246 OA
BRANCH   7   9
ATOM      9  O   UNL     1      -4.119 -10.421 -27.542  1.00  0.00    -0.465 OA
ATOM     10  C   UNL     1      -5.140  -9.634 -26.927  1.00  0.00     0.282 C 
ENDBRANCH   7   9
ENDBRANCH   1   7
BRANCH   3  11
ATOM     11  O   UNL     1       0.400 -12.911 -26.548  1.00  0.00    -0.508 OA
ATOM     12  H   UNL     1       1.271 -12.884 -26.979  1.00  0.00     0.293 HD
ENDBRANCH   3  11
TORSDOF 3
ENDMDL
MODEL 3
REMARK VINA RESULT:      -5.6      5.628      8.732
REMARK SMILES COC(=O)c1cccc(O)c1
REMARK SMILES IDX 5 1 11 2 9 3 8 4 7 5 6 6 3 7 4 8 2 9 1 10 10 11
REMARK H PARENT 10 12
ROOT
ATOM      1  C   UNL     1       5.266  -0.222 -26.308  1.00  0.00     0.063 A 
ATOM      2  C   UNL     1       5.043  -0.328 -27.689  1.00  0.00     0.061 A 
ATOM      3  C   UNL     1       5.802   0.445 -28.564  1.00  0.00     0.116 A 
ATOM      4  C   UNL     1       6.774   1.319 -28.091  1.00  0.00     0.046 A 
ATOM      5  C   UNL     1       6.999   1.428 -26.719  1.00  0.00     0.005 A 
ATOM      6  C   UNL     1       6.247   0.660 -25.829  1.00  0.00     0.016 A 
ENDROOT
BRANCH   1   7
ATOM      7  C   UNL     1       4.493  -1.017 -25.314  1.00  0.00     0.337 C 
ATOM      8  O   UNL     1       3.305  -1.270 -25.429  1.00  0.00    -0.246 OA
BRANCH   7   9
ATOM      9  O   UNL     1       5.290  -1.403 -24.285  1.00  0.00    -0.465 OA
ATOM     10  C   UNL     1       4.619  -2.183 -23.295  1.00  0.00     0.282 C 
ENDBRANCH   7   9
ENDBRANCH   1   7
BRANCH   3  11
ATOM     11  O   UNL     1       5.620   0.375 -29.914  1.00  0.00    -0.508 OA
ATOM     12  H   UNL     1       4.755  -0.029 -30.097  1.00  0.00     0.293 HD
ENDBRANCH   3  11
TORSDOF 3
ENDMDL
MODEL 4
REMARK VINA RESULT:      -5.6     13.210     14.826
REMARK SMILES COC(=O)c1cccc(O)c1
REMARK SMILES IDX 5 1 11 2 9 3 8 4 7 5 6 6 3 7 4 8 2 9 1 10 10 11
REMARK H PARENT 10 12
ROOT
ATOM      1  C   UNL     1      -1.738  -9.977 -27.191  1.00  0.00     0.063 A 
ATOM      2  C   UNL     1      -0.833  -9.653 -26.170  1.00  0.00     0.061 A 
ATOM      3  C   UNL     1       0.147 -10.573 -25.807  1.00  0.00     0.116 A 
ATOM      4  C   UNL     1       0.241 -11.808 -26.441  1.00  0.00     0.046 A 
ATOM      5  C   UNL     1      -0.656 -12.135 -27.456  1.00  0.00     0.005 A 
ATOM      6  C   UNL     1      -1.644 -11.223 -27.831  1.00  0.00     0.016 A 
ENDROOT
BRANCH   1   7
ATOM      7  C   UNL     1      -2.810  -9.043 -27.632  1.00  0.00     0.337 C 
ATOM      8  O   UNL     1      -2.817  -8.489 -28.719  1.00  0.00    -0.246 OA
BRANCH   7   9
ATOM      9  O   UNL     1      -3.752  -8.905 -26.665  1.00  0.00    -0.465 OA
ATOM     10  C   UNL     1      -4.993  -9.542 -26.972  1.00  0.00     0.282 C 
ENDBRANCH   7   9
ENDBRANCH   1   7
BRANCH   3  11
ATOM     11  O   UNL     1       1.048 -10.300 -24.820  1.00  0.00    -0.508 OA
ATOM     12  H   UNL     1       1.939 -10.260 -25.207  1.00  0.00     0.293 HD
ENDBRANCH   3  11
TORSDOF 3
ENDMDL
MODEL 5
REMARK VINA RESULT:      -5.6      5.336      7.247
REMARK SMILES COC(=O)c1cccc(O)c1
REMARK SMILES IDX 5 1 11 2 9 3 8 4 7 5 6 6 3 7 4 8 2 9 1 10 10 11
REMARK H PARENT 10 12
ROOT
ATOM      1  C   UNL     1       4.774  -0.682 -25.493  1.00  0.00     0.063 A 
ATOM      2  C   UNL     1       5.452  -1.292 -24.429  1.00  0.00     0.061 A 
ATOM      3  C   UNL     1       4.722  -1.912 -23.418  1.00  0.00     0.116 A 
ATOM      4  C   UNL     1       3.332  -1.934 -23.448  1.00  0.00     0.046 A 
ATOM      5  C   UNL     1       2.652  -1.328 -24.504  1.00  0.00     0.005 A 
ATOM      6  C   UNL     1       3.371  -0.702 -25.524  1.00  0.00     0.016 A 
ENDROOT
BRANCH   1   7
ATOM      7  C   UNL     1       5.488  -0.001 -26.608  1.00  0.00     0.337 C 
ATOM      8  O   UNL     1       5.310  -0.266 -27.785  1.00  0.00    -0.246 OA
BRANCH   7   9
ATOM      9  O   UNL     1       6.347   0.933 -26.127  1.00  0.00    -0.465 OA
ATOM     10  C   UNL     1       7.112   1.590 -27.138  1.00  0.00     0.282 C 
ENDBRANCH   7   9
ENDBRANCH   1   7
BRANCH   3  11
ATOM     11  O   UNL     1       5.340  -2.519 -22.365  1.00  0.00    -0.508 OA
ATOM     12  H   UNL     1       5.367  -3.477 -22.522  1.00  0.00     0.293 HD
ENDBRANCH   3  11
TORSDOF 3
ENDMDL
MODEL 6
REMARK VINA RESULT:      -5.5     13.549     15.732
REMARK SMILES COC(=O)c1cccc(O)c1
REMARK SMILES IDX 5 1 11 2 9 3 8 4 7 5 6 6 3 7 4 8 2 9 1 10 10 11
REMARK H PARENT 10 12
ROOT
ATOM      1  C   UNL     1      -2.214 -10.395 -27.319  1.00  0.00     0.063 A 
ATOM      2  C   UNL     1      -3.460 -11.034 -27.243  1.00  0.00     0.061 A 
ATOM      3  C   UNL     1      -4.616 -10.266 -27.127  1.00  0.00     0.116 A 
ATOM      4  C   UNL     1      -4.553  -8.878 -27.083  1.00  0.00     0.046 A 
ATOM      5  C   UNL     1      -3.317  -8.238 -27.157  1.00  0.00     0.005 A 
ATOM      6  C   UNL     1      -2.149  -8.994 -27.274  1.00  0.00     0.016 A 
ENDROOT
BRANCH   1   7
ATOM      7  C   UNL     1      -0.938 -11.151 -27.444  1.00  0.00     0.337 C 
ATOM      8  O   UNL     1      -0.862 -12.272 -27.919  1.00  0.00    -0.246 OA
BRANCH   7   9
ATOM      9  O   UNL     1       0.100 -10.423 -26.960  1.00  0.00    -0.465 OA
ATOM     10  C   UNL     1       0.483 -10.776 -25.630  1.00  0.00     0.282 C 
ENDBRANCH   7   9
ENDBRANCH   1   7
BRANCH   3  11
ATOM     11  O   UNL     1      -5.849 -10.844 -27.051  1.00  0.00    -0.508 OA
ATOM     12  H   UNL     1      -6.487 -10.295 -27.536  1.00  0.00     0.293 HD
ENDBRANCH   3  11
TORSDOF 3
ENDMDL
MODEL 7
REMARK VINA RESULT:      -5.5     13.615     15.130
REMARK SMILES COC(=O)c1cccc(O)c1
REMARK SMILES IDX 5 1 11 2 9 3 8 4 7 5 6 6 3 7 4 8 2 9 1 10 10 11
REMARK H PARENT 10 12
ROOT
ATOM      1  C   UNL     1      -1.097 -10.848 -26.906  1.00  0.00     0.063 A 
ATOM      2  C   UNL     1      -2.257 -10.822 -27.692  1.00  0.00     0.061 A 
ATOM      3  C   UNL     1      -2.970  -9.633 -27.822  1.00  0.00     0.116 A 
ATOM      4  C   UNL     1      -2.548  -8.472 -27.182  1.00  0.00     0.046 A 
ATOM      5  C   UNL     1      -1.395  -8.492 -26.399  1.00  0.00     0.005 A 
ATOM      6  C   UNL     1      -0.670  -9.677 -26.260  1.00  0.00     0.016 A 
ENDROOT
BRANCH   1   7
ATOM      7  C   UNL     1      -0.285 -12.083 -26.723  1.00  0.00     0.337 C 
ATOM      8  O   UNL     1      -0.525 -13.137 -27.289  1.00  0.00    -0.246 OA
BRANCH   7   9
ATOM      9  O   UNL     1       0.732 -11.863 -25.852  1.00  0.00    -0.465 OA
ATOM     10  C   UNL     1       0.899 -12.902 -24.885  1.00  0.00     0.282 C 
ENDBRANCH   7   9
ENDBRANCH   1   7
BRANCH   3  11
ATOM     11  O   UNL     1      -4.103  -9.562 -28.576  1.00  0.00    -0.508 OA
ATOM     12  H   UNL     1      -4.877  -9.642 -27.994  1.00  0.00     0.293 HD
ENDBRANCH   3  11
TORSDOF 3
ENDMDL
MODEL 8
REMARK VINA RESULT:      -5.4     13.899     15.279
REMARK SMILES COC(=O)c1cccc(O)c1
REMARK SMILES IDX 5 1 11 2 9 3 8 4 7 5 6 6 3 7 4 8 2 9 1 10 10 11
REMARK H PARENT 10 12
ROOT
ATOM      1  C   UNL     1      -4.235  -1.433 -28.544  1.00  0.00     0.063 A 
ATOM      2  C   UNL     1      -4.059  -1.540 -29.932  1.00  0.00     0.061 A 
ATOM      3  C   UNL     1      -3.080  -0.772 -30.557  1.00  0.00     0.116 A 
ATOM      4  C   UNL     1      -2.277   0.098 -29.829  1.00  0.00     0.046 A 
ATOM      5  C   UNL     1      -2.448   0.208 -28.450  1.00  0.00     0.005 A 
ATOM      6  C   UNL     1      -3.425  -0.555 -27.808  1.00  0.00     0.016 A 
ENDROOT
BRANCH   1   7
ATOM      7  C   UNL     1      -5.260  -2.222 -27.809  1.00  0.00     0.337 C 
ATOM      8  O   UNL     1      -5.122  -2.599 -26.656  1.00  0.00    -0.246 OA
BRANCH   7   9
ATOM      9  O   UNL     1      -6.342  -2.455 -28.595  1.00  0.00    -0.465 OA
ATOM     10  C   UNL     1      -7.469  -1.634 -28.285  1.00  0.00     0.282 C 
ENDBRANCH   7   9
ENDBRANCH   1   7
BRANCH   3  11
ATOM     11  O   UNL     1      -2.873  -0.844 -31.904  1.00  0.00    -0.508 OA
ATOM     12  H   UNL     1      -2.251  -0.145 -32.166  1.00  0.00     0.293 HD
ENDBRANCH   3  11
TORSDOF 3
ENDMDL
MODEL 9
REMARK VINA RESULT:      -5.3     14.761     16.323
REMARK SMILES COC(=O)c1cccc(O)c1
REMARK SMILES IDX 5 1 11 2 9 3 8 4 7 5 6 6 3 7 4 8 2 9 1 10 10 11
REMARK H PARENT 10 12
ROOT
ATOM      1  C   UNL     1      -4.043  -9.842 -27.084  1.00  0.00     0.063 A 
ATOM      2  C   UNL     1      -3.151 -10.855 -27.464  1.00  0.00     0.061 A 
ATOM      3  C   UNL     1      -1.833 -10.528 -27.767  1.00  0.00     0.116 A 
ATOM      4  C   UNL     1      -1.387  -9.212 -27.700  1.00  0.00     0.046 A 
ATOM      5  C   UNL     1      -2.269  -8.201 -27.324  1.00  0.00     0.005 A 
ATOM      6  C   UNL     1      -3.595  -8.513 -27.017  1.00  0.00     0.016 A 
ENDROOT
BRANCH   1   7
ATOM      7  C   UNL     1      -5.466 -10.118 -26.746  1.00  0.00     0.337 C 
ATOM      8  O   UNL     1      -6.409  -9.619 -27.339  1.00  0.00    -0.246 OA
BRANCH   7   9
ATOM      9  O   UNL     1      -5.552 -10.983 -25.704  1.00  0.00    -0.465 OA
ATOM     10  C   UNL     1      -6.407 -12.101 -25.950  1.00  0.00     0.282 C 
ENDBRANCH   7   9
ENDBRANCH   1   7
BRANCH   3  11
ATOM     11  O   UNL     1      -0.931 -11.481 -28.141  1.00  0.00    -0.508 OA
ATOM     12  H   UNL     1      -1.008 -11.632 -29.098  1.00  0.00     0.293 HD
ENDBRANCH   3  11
TORSDOF 3
ENDMDL
MODEL 10
REMARK VINA RESULT:      -5.3     13.687     14.897
REMARK SMILES COC(=O)c1cccc(O)c1
REMARK SMILES IDX 5 1 11 2 9 3 8 4 7 5 6 6 3 7 4 8 2 9 1 10 10 11
REMARK H PARENT 10 12
ROOT
ATOM      1  C   UNL     1      -4.040  -1.126 -28.311  1.00  0.00     0.063 A 
ATOM      2  C   UNL     1      -3.989  -1.410 -29.683  1.00  0.00     0.061 A 
ATOM      3  C   UNL     1      -3.054  -0.758 -30.482  1.00  0.00     0.116 A 
ATOM      4  C   UNL     1      -2.171   0.171 -29.941  1.00  0.00     0.046 A 
ATOM      5  C   UNL     1      -2.218   0.457 -28.577  1.00  0.00     0.005 A 
ATOM      6  C   UNL     1      -3.150  -0.189 -27.763  1.00  0.00     0.016 A 
ENDROOT
BRANCH   1   7
ATOM      7  C   UNL     1      -5.012  -1.785 -27.396  1.00  0.00     0.337 C 
ATOM      8  O   UNL     1      -5.869  -2.568 -27.773  1.00  0.00    -0.246 OA
BRANCH   7   9
ATOM      9  O   UNL     1      -4.808  -1.390 -26.114  1.00  0.00    -0.465 OA
ATOM     10  C   UNL     1      -5.993  -0.951 -25.448  1.00  0.00     0.282 C 
ENDBRANCH   7   9
ENDBRANCH   1   7
BRANCH   3  11
ATOM     11  O   UNL     1      -2.969  -1.003 -31.821  1.00  0.00    -0.508 OA
ATOM     12  H   UNL     1      -2.052  -0.863 -32.111  1.00  0.00     0.293 HD
ENDBRANCH   3  11
TORSDOF 3
ENDMDL
