MODEL 1
REMARK VINA RESULT:      -7.7      0.000      0.000
REMARK SMILES CCCCCCCCCCC/C=C\CCCCCCCC(=O)O
REMARK SMILES IDX 12 1 13 2 11 3 10 4 9 5 8 6 7 7 6 8 5 9 4 10 3 11 2 12 1 13
REMARK SMILES IDX 14 14 15 15 16 16 17 17 18 18 19 19 20 20 21 21 22 22 23 23
REMARK H PARENT 23 24
ROOT
ATOM      1  C   UNL     1       8.548   0.014 -18.097  1.00  0.00    -0.031 C 
ATOM      2  C   UNL     1       7.888  -0.760 -18.974  1.00  0.00    -0.031 C 
ENDROOT
BRANCH   1   3
ATOM      3  C   UNL     1       8.015   0.648 -16.843  1.00  0.00     0.027 C 
BRANCH   3   4
ATOM      4  C   UNL     1       8.936   0.462 -15.632  1.00  0.00     0.004 C 
BRANCH   4   5
ATOM      5  C   UNL     1      10.022  -0.595 -15.854  1.00  0.00     0.000 C 
BRANCH   5   6
ATOM      6  C   UNL     1      11.258  -0.311 -14.997  1.00  0.00     0.000 C 
BRANCH   6   7
ATOM      7  C   UNL     1      12.304   0.485 -15.781  1.00  0.00     0.000 C 
BRANCH   7   8
ATOM      8  C   UNL     1      12.879   1.627 -14.943  1.00  0.00     0.000 C 
BRANCH   8   9
ATOM      9  C   UNL     1      13.290   2.809 -15.823  1.00  0.00    -0.000 C 
BRANCH   9  10
ATOM     10  C   UNL     1      12.071   3.589 -16.316  1.00  0.00    -0.000 C 
BRANCH  10  11
ATOM     11  C   UNL     1      11.463   4.435 -15.196  1.00  0.00    -0.000 C 
BRANCH  11  12
ATOM     12  C   UNL     1      10.280   3.723 -14.540  1.00  0.00    -0.003 C 
ATOM     13  C   UNL     1       9.018   4.570 -14.600  1.00  0.00     0.004 C 
ENDBRANCH  11  12
ENDBRANCH  10  11
ENDBRANCH   9  10
ENDBRANCH   8   9
ENDBRANCH   7   8
ENDBRANCH   6   7
ENDBRANCH   5   6
ENDBRANCH   4   5
ENDBRANCH   3   4
ENDBRANCH   1   3
BRANCH   2  14
ATOM     14  C   UNL     1       6.451  -1.200 -18.918  1.00  0.00     0.027 C 
BRANCH  14  15
ATOM     15  C   UNL     1       6.320  -2.698 -19.203  1.00  0.00     0.004 C 
BRANCH  15  16
ATOM     16  C   UNL     1       6.488  -2.994 -20.694  1.00  0.00     0.000 C 
BRANCH  16  17
ATOM     17  C   UNL     1       5.579  -2.105 -21.546  1.00  0.00     0.000 C 
BRANCH  17  18
ATOM     18  C   UNL     1       4.721  -2.941 -22.498  1.00  0.00     0.001 C 
BRANCH  18  19
ATOM     19  C   UNL     1       3.927  -2.052 -23.457  1.00  0.00     0.012 C 
BRANCH  19  20
ATOM     20  C   UNL     1       4.850  -1.325 -24.434  1.00  0.00     0.122 C 
BRANCH  20  21
ATOM     21  C   UNL     1       4.088  -0.726 -25.592  1.00  0.00     0.303 C 
ATOM     22  O   UNL     1       4.439  -0.747 -26.761  1.00  0.00    -0.252 OA
BRANCH  21  23
ATOM     23  O   UNL     1       2.933  -0.141 -25.196  1.00  0.00    -0.481 OA
ATOM     24  H   UNL     1       2.216  -0.199 -25.856  1.00  0.00     0.296 HD
ENDBRANCH  21  23
ENDBRANCH  20  21
ENDBRANCH  19  20
ENDBRANCH  18  19
ENDBRANCH  17  18
ENDBRANCH  16  17
ENDBRANCH  15  16
ENDBRANCH  14  15
ENDBRANCH   2  14
TORSDOF 19
ENDMDL
MODEL 2
REMARK VINA RESULT:      -7.6      4.519     10.719
REMARK SMILES CCCCCCCCCCC/C=C\CCCCCCCC(=O)O
REMARK SMILES IDX 12 1 13 2 11 3 10 4 9 5 8 6 7 7 6 8 5 9 4 10 3 11 2 12 1 13
REMARK SMILES IDX 14 14 15 15 16 16 17 17 18 18 19 19 20 20 21 21 22 22 23 23
REMARK H PARENT 23 24
ROOT
ATOM      1  C   UNL     1       7.755  -1.176 -19.101  1.00  0.00    -0.031 C 
ATOM      2  C   UNL     1       8.571  -0.475 -18.296  1.00  0.00    -0.031 C 
ENDROOT
BRANCH   1   3
ATOM      3  C   UNL     1       6.405  -1.749 -18.773  1.00  0.00     0.027 C 
BRANCH   3   4
ATOM      4  C   UNL     1       6.126  -3.082 -19.475  1.00  0.00     0.004 C 
BRANCH   4   5
ATOM      5  C   UNL     1       6.497  -3.074 -20.961  1.00  0.00     0.000 C 
BRANCH   5   6
ATOM      6  C   UNL     1       5.723  -1.995 -21.722  1.00  0.00     0.000 C 
BRANCH   6   7
ATOM      7  C   UNL     1       4.547  -2.597 -22.493  1.00  0.00     0.000 C 
BRANCH   7   8
ATOM      8  C   UNL     1       4.613  -2.241 -23.979  1.00  0.00     0.000 C 
BRANCH   8   9
ATOM      9  C   UNL     1       3.399  -1.414 -24.406  1.00  0.00    -0.000 C 
BRANCH   9  10
ATOM     10  C   UNL     1       3.751  -0.450 -25.539  1.00  0.00    -0.000 C 
BRANCH  10  11
ATOM     11  C   UNL     1       5.236  -0.533 -25.898  1.00  0.00    -0.000 C 
BRANCH  11  12
ATOM     12  C   UNL     1       5.526   0.163 -27.228  1.00  0.00    -0.003 C 
ATOM     13  C   UNL     1       6.922   0.767 -27.247  1.00  0.00     0.004 C 
ENDBRANCH  11  12
ENDBRANCH  10  11
ENDBRANCH   9  10
ENDBRANCH   8   9
ENDBRANCH   7   8
ENDBRANCH   6   7
ENDBRANCH   5   6
ENDBRANCH   4   5
ENDBRANCH   3   4
ENDBRANCH   1   3
BRANCH   2  14
ATOM     14  C   UNL     1       8.336  -0.074 -16.866  1.00  0.00     0.027 C 
BRANCH  14  15
ATOM     15  C   UNL     1       9.627  -0.159 -16.049  1.00  0.00     0.004 C 
BRANCH  15  16
ATOM     16  C   UNL     1       9.709   0.976 -15.026  1.00  0.00     0.000 C 
BRANCH  16  17
ATOM     17  C   UNL     1      11.158   1.399 -14.776  1.00  0.00     0.000 C 
BRANCH  17  18
ATOM     18  C   UNL     1      12.126   0.620 -15.669  1.00  0.00     0.001 C 
BRANCH  18  19
ATOM     19  C   UNL     1      13.184   1.540 -16.278  1.00  0.00     0.012 C 
BRANCH  19  20
ATOM     20  C   UNL     1      13.555   2.672 -15.320  1.00  0.00     0.122 C 
BRANCH  20  21
ATOM     21  C   UNL     1      13.803   3.971 -16.050  1.00  0.00     0.303 C 
ATOM     22  O   UNL     1      14.122   5.028 -15.530  1.00  0.00    -0.252 OA
BRANCH  21  23
ATOM     23  O   UNL     1      13.631   3.847 -17.387  1.00  0.00    -0.481 OA
ATOM     24  H   UNL     1      12.986   4.478 -17.761  1.00  0.00     0.296 HD
ENDBRANCH  21  23
ENDBRANCH  20  21
ENDBRANCH  19  20
ENDBRANCH  18  19
ENDBRANCH  17  18
ENDBRANCH  16  17
ENDBRANCH  15  16
ENDBRANCH  14  15
ENDBRANCH   2  14
TORSDOF 19
ENDMDL
MODEL 3
REMARK VINA RESULT:      -7.5      1.946      3.927
REMARK SMILES CCCCCCCCCCC/C=C\CCCCCCCC(=O)O
REMARK SMILES IDX 12 1 13 2 11 3 10 4 9 5 8 6 7 7 6 8 5 9 4 10 3 11 2 12 1 13
REMARK SMILES IDX 14 14 15 15 16 16 17 17 18 18 19 19 20 20 21 21 22 22 23 23
REMARK H PARENT 23 24
ROOT
ATOM      1  C   UNL     1       6.529  -1.721 -20.317  1.00  0.00    -0.031 C 
ATOM      2  C   UNL     1       5.943  -2.067 -21.474  1.00  0.00    -0.031 C 
ENDROOT
BRANCH   1   3
ATOM      3  C   UNL     1       6.347  -2.356 -18.966  1.00  0.00     0.027 C 
BRANCH   3   4
ATOM      4  C   UNL     1       6.829  -1.470 -17.812  1.00  0.00     0.004 C 
BRANCH   4   5
ATOM      5  C   UNL     1       7.734  -0.320 -18.267  1.00  0.00     0.000 C 
BRANCH   5   6
ATOM      6  C   UNL     1       8.334   0.422 -17.070  1.00  0.00     0.000 C 
BRANCH   6   7
ATOM      7  C   UNL     1       8.348  -0.461 -15.821  1.00  0.00     0.000 C 
BRANCH   7   8
ATOM      8  C   UNL     1       9.776  -0.722 -15.339  1.00  0.00     0.000 C 
BRANCH   8   9
ATOM      9  C   UNL     1      10.793   0.081 -16.152  1.00  0.00    -0.000 C 
BRANCH   9  10
ATOM     10  C   UNL     1      11.931   0.595 -15.271  1.00  0.00    -0.000 C 
BRANCH  10  11
ATOM     11  C   UNL     1      12.272   2.051 -15.596  1.00  0.00    -0.000 C 
BRANCH  11  12
ATOM     12  C   UNL     1      13.676   2.173 -16.191  1.00  0.00    -0.003 C 
ATOM     13  C   UNL     1      13.763   3.327 -17.177  1.00  0.00     0.004 C 
ENDBRANCH  11  12
ENDBRANCH  10  11
ENDBRANCH   9  10
ENDBRANCH   8   9
ENDBRANCH   7   8
ENDBRANCH   6   7
ENDBRANCH   5   6
ENDBRANCH   4   5
ENDBRANCH   3   4
ENDBRANCH   1   3
BRANCH   2  14
ATOM     14  C   UNL     1       4.967  -3.185 -21.718  1.00  0.00     0.027 C 
BRANCH  14  15
ATOM     15  C   UNL     1       4.173  -2.955 -23.007  1.00  0.00     0.004 C 
BRANCH  15  16
ATOM     16  C   UNL     1       4.789  -1.831 -23.842  1.00  0.00     0.000 C 
BRANCH  16  17
ATOM     17  C   UNL     1       3.838  -1.372 -24.949  1.00  0.00     0.000 C 
BRANCH  17  18
ATOM     18  C   UNL     1       4.347  -0.098 -25.625  1.00  0.00     0.001 C 
BRANCH  18  19
ATOM     19  C   UNL     1       5.123  -0.418 -26.903  1.00  0.00     0.012 C 
BRANCH  19  20
ATOM     20  C   UNL     1       6.453   0.333 -26.948  1.00  0.00     0.122 C 
BRANCH  20  21
ATOM     21  C   UNL     1       6.504   1.325 -28.086  1.00  0.00     0.303 C 
ATOM     22  O   UNL     1       6.004   1.168 -29.189  1.00  0.00    -0.252 OA
BRANCH  21  23
ATOM     23  O   UNL     1       7.182   2.449 -27.755  1.00  0.00    -0.481 OA
ATOM     24  H   UNL     1       7.701   2.367 -26.932  1.00  0.00     0.296 HD
ENDBRANCH  21  23
ENDBRANCH  20  21
ENDBRANCH  19  20
ENDBRANCH  18  19
ENDBRANCH  17  18
ENDBRANCH  16  17
ENDBRANCH  15  16
ENDBRANCH  14  15
ENDBRANCH   2  14
TORSDOF 19
ENDMDL
MODEL 4
REMARK VINA RESULT:      -7.1      4.629     10.538
REMARK SMILES CCCCCCCCCCC/C=C\CCCCCCCC(=O)O
REMARK SMILES IDX 12 1 13 2 11 3 10 4 9 5 8 6 7 7 6 8 5 9 4 10 3 11 2 12 1 13
REMARK SMILES IDX 14 14 15 15 16 16 17 17 18 18 19 19 20 20 21 21 22 22 23 23
REMARK H PARENT 23 24
ROOT
ATOM      1  C   UNL     1       8.039  -1.557 -16.164  1.00  0.00    -0.031 C 
ATOM      2  C   UNL     1       9.022  -0.753 -15.727  1.00  0.00    -0.031 C 
ENDROOT
BRANCH   1   3
ATOM      3  C   UNL     1       6.621  -1.185 -16.495  1.00  0.00     0.027 C 
BRANCH   3   4
ATOM      4  C   UNL     1       6.451  -0.658 -17.924  1.00  0.00     0.004 C 
BRANCH   4   5
ATOM      5  C   UNL     1       7.226  -1.470 -18.966  1.00  0.00     0.000 C 
BRANCH   5   6
ATOM      6  C   UNL     1       6.421  -2.684 -19.436  1.00  0.00     0.000 C 
BRANCH   6   7
ATOM      7  C   UNL     1       6.497  -2.844 -20.956  1.00  0.00     0.000 C 
BRANCH   7   8
ATOM      8  C   UNL     1       5.422  -2.013 -21.658  1.00  0.00     0.000 C 
BRANCH   8   9
ATOM      9  C   UNL     1       4.575  -2.879 -22.593  1.00  0.00    -0.000 C 
BRANCH   9  10
ATOM     10  C   UNL     1       3.946  -2.044 -23.709  1.00  0.00    -0.000 C 
BRANCH  10  11
ATOM     11  C   UNL     1       5.016  -1.380 -24.577  1.00  0.00    -0.000 C 
BRANCH  11  12
ATOM     12  C   UNL     1       4.388  -0.551 -25.698  1.00  0.00    -0.003 C 
ATOM     13  C   UNL     1       5.431  -0.103 -26.710  1.00  0.00     0.004 C 
ENDBRANCH  11  12
ENDBRANCH  10  11
ENDBRANCH   9  10
ENDBRANCH   8   9
ENDBRANCH   7   8
ENDBRANCH   6   7
ENDBRANCH   5   6
ENDBRANCH   4   5
ENDBRANCH   3   4
ENDBRANCH   1   3
BRANCH   2  14
ATOM     14  C   UNL     1       8.958   0.727 -15.468  1.00  0.00     0.027 C 
BRANCH  14  15
ATOM     15  C   UNL     1      10.308   1.395 -15.740  1.00  0.00     0.004 C 
BRANCH  15  16
ATOM     16  C   UNL     1      11.440   0.365 -15.759  1.00  0.00     0.000 C 
BRANCH  16  17
ATOM     17  C   UNL     1      12.741   0.976 -16.284  1.00  0.00     0.000 C 
BRANCH  17  18
ATOM     18  C   UNL     1      13.170   2.177 -15.439  1.00  0.00     0.001 C 
BRANCH  18  19
ATOM     19  C   UNL     1      13.600   3.351 -16.320  1.00  0.00     0.012 C 
BRANCH  19  20
ATOM     20  C   UNL     1      13.852   4.607 -15.486  1.00  0.00     0.122 C 
BRANCH  20  21
ATOM     21  C   UNL     1      12.598   5.085 -14.791  1.00  0.00     0.303 C 
ATOM     22  O   UNL     1      11.530   5.318 -15.334  1.00  0.00    -0.252 OA
BRANCH  21  23
ATOM     23  O   UNL     1      12.778   5.235 -13.458  1.00  0.00    -0.481 OA
ATOM     24  H   UNL     1      12.671   4.407 -12.951  1.00  0.00     0.296 HD
ENDBRANCH  21  23
ENDBRANCH  20  21
ENDBRANCH  19  20
ENDBRANCH  18  19
ENDBRANCH  17  18
ENDBRANCH  16  17
ENDBRANCH  15  16
ENDBRANCH  14  15
ENDBRANCH   2  14
TORSDOF 19
ENDMDL
MODEL 5
REMARK VINA RESULT:      -6.8      4.157     10.427
REMARK SMILES CCCCCCCCCCC/C=C\CCCCCCCC(=O)O
REMARK SMILES IDX 12 1 13 2 11 3 10 4 9 5 8 6 7 7 6 8 5 9 4 10 3 11 2 12 1 13
REMARK SMILES IDX 14 14 15 15 16 16 17 17 18 18 19 19 20 20 21 21 22 22 23 23
REMARK H PARENT 23 24
ROOT
ATOM      1  C   UNL     1       9.668  -0.582 -16.223  1.00  0.00    -0.031 C 
ATOM      2  C   UNL     1      10.757  -0.384 -15.463  1.00  0.00    -0.031 C 
ENDROOT
BRANCH   1   3
ATOM      3  C   UNL     1       8.890   0.441 -17.004  1.00  0.00     0.027 C 
BRANCH   3   4
ATOM      4  C   UNL     1       8.379  -0.086 -18.349  1.00  0.00     0.004 C 
BRANCH   4   5
ATOM      5  C   UNL     1       7.030  -0.805 -18.246  1.00  0.00     0.000 C 
BRANCH   5   6
ATOM      6  C   UNL     1       6.548  -1.281 -19.618  1.00  0.00     0.000 C 
BRANCH   6   7
ATOM      7  C   UNL     1       6.842  -2.768 -19.823  1.00  0.00     0.000 C 
BRANCH   7   8
ATOM      8  C   UNL     1       6.280  -3.270 -21.154  1.00  0.00     0.000 C 
BRANCH   8   9
ATOM      9  C   UNL     1       5.398  -2.212 -21.820  1.00  0.00    -0.000 C 
BRANCH   9  10
ATOM     10  C   UNL     1       4.309  -2.854 -22.679  1.00  0.00    -0.000 C 
BRANCH  10  11
ATOM     11  C   UNL     1       3.957  -1.974 -23.880  1.00  0.00    -0.000 C 
BRANCH  11  12
ATOM     12  C   UNL     1       5.200  -1.295 -24.455  1.00  0.00    -0.003 C 
ATOM     13  C   UNL     1       4.874  -0.519 -25.722  1.00  0.00     0.004 C 
ENDBRANCH  11  12
ENDBRANCH  10  11
ENDBRANCH   9  10
ENDBRANCH   8   9
ENDBRANCH   7   8
ENDBRANCH   6   7
ENDBRANCH   5   6
ENDBRANCH   4   5
ENDBRANCH   3   4
ENDBRANCH   1   3
BRANCH   2  14
ATOM     14  C   UNL     1      11.485   0.907 -15.209  1.00  0.00     0.027 C 
BRANCH  14  15
ATOM     15  C   UNL     1      12.677   1.065 -16.156  1.00  0.00     0.004 C 
BRANCH  15  16
ATOM     16  C   UNL     1      13.026   2.540 -16.362  1.00  0.00     0.000 C 
BRANCH  16  17
ATOM     17  C   UNL     1      13.925   3.065 -15.240  1.00  0.00     0.000 C 
BRANCH  17  18
ATOM     18  C   UNL     1      13.228   4.167 -14.440  1.00  0.00     0.001 C 
BRANCH  18  19
ATOM     19  C   UNL     1      11.941   4.625 -15.128  1.00  0.00     0.012 C 
BRANCH  19  20
ATOM     20  C   UNL     1      10.822   4.858 -14.114  1.00  0.00     0.122 C 
BRANCH  20  21
ATOM     21  C   UNL     1       9.838   5.902 -14.589  1.00  0.00     0.303 C 
ATOM     22  O   UNL     1       9.676   7.004 -14.090  1.00  0.00    -0.252 OA
BRANCH  21  23
ATOM     23  O   UNL     1       9.127   5.484 -15.663  1.00  0.00    -0.481 OA
ATOM     24  H   UNL     1       8.790   6.212 -16.219  1.00  0.00     0.296 HD
ENDBRANCH  21  23
ENDBRANCH  20  21
ENDBRANCH  19  20
ENDBRANCH  18  19
ENDBRANCH  17  18
ENDBRANCH  16  17
ENDBRANCH  15  16
ENDBRANCH  14  15
ENDBRANCH   2  14
TORSDOF 19
ENDMDL
MODEL 6
REMARK VINA RESULT:      -6.7     15.689     19.668
REMARK SMILES CCCCCCCCCCC/C=C\CCCCCCCC(=O)O
REMARK SMILES IDX 12 1 13 2 11 3 10 4 9 5 8 6 7 7 6 8 5 9 4 10 3 11 2 12 1 13
REMARK SMILES IDX 14 14 15 15 16 16 17 17 18 18 19 19 20 20 21 21 22 22 23 23
REMARK H PARENT 23 24
ROOT
ATOM      1  C   UNL     1      -6.795   1.378 -32.646  1.00  0.00    -0.031 C 
ATOM      2  C   UNL     1      -7.580   0.970 -33.656  1.00  0.00    -0.031 C 
ENDROOT
BRANCH   1   3
ATOM      3  C   UNL     1      -6.871   0.976 -31.199  1.00  0.00     0.027 C 
BRANCH   3   4
ATOM      4  C   UNL     1      -6.694   2.154 -30.234  1.00  0.00     0.004 C 
BRANCH   4   5
ATOM      5  C   UNL     1      -5.628   1.905 -29.163  1.00  0.00     0.000 C 
BRANCH   5   6
ATOM      6  C   UNL     1      -4.341   2.676 -29.470  1.00  0.00     0.000 C 
BRANCH   6   7
ATOM      7  C   UNL     1      -3.242   2.341 -28.460  1.00  0.00     0.000 C 
BRANCH   7   8
ATOM      8  C   UNL     1      -3.434   0.944 -27.868  1.00  0.00     0.000 C 
BRANCH   8   9
ATOM      9  C   UNL     1      -2.524  -0.079 -28.551  1.00  0.00    -0.000 C 
BRANCH   9  10
ATOM     10  C   UNL     1      -3.248  -1.407 -28.775  1.00  0.00    -0.000 C 
BRANCH  10  11
ATOM     11  C   UNL     1      -4.196  -1.328 -29.972  1.00  0.00    -0.000 C 
BRANCH  11  12
ATOM     12  C   UNL     1      -5.494  -2.093 -29.705  1.00  0.00    -0.003 C 
ATOM     13  C   UNL     1      -6.011  -1.836 -28.298  1.00  0.00     0.004 C 
ENDBRANCH  11  12
ENDBRANCH  10  11
ENDBRANCH   9  10
ENDBRANCH   8   9
ENDBRANCH   7   8
ENDBRANCH   6   7
ENDBRANCH   5   6
ENDBRANCH   4   5
ENDBRANCH   3   4
ENDBRANCH   1   3
BRANCH   2  14
ATOM     14  C   UNL     1      -8.725  -0.002 -33.602  1.00  0.00     0.027 C 
BRANCH  14  15
ATOM     15  C   UNL     1     -10.070   0.728 -33.576  1.00  0.00     0.004 C 
BRANCH  15  16
ATOM     16  C   UNL     1     -10.524   0.999 -32.140  1.00  0.00     0.000 C 
BRANCH  16  17
ATOM     17  C   UNL     1     -10.732  -0.303 -31.364  1.00  0.00     0.000 C 
BRANCH  17  18
ATOM     18  C   UNL     1     -10.069  -0.240 -29.987  1.00  0.00     0.001 C 
BRANCH  18  19
ATOM     19  C   UNL     1      -9.541  -1.609 -29.560  1.00  0.00     0.012 C 
BRANCH  19  20
ATOM     20  C   UNL     1      -8.977  -2.384 -30.750  1.00  0.00     0.122 C 
BRANCH  20  21
ATOM     21  C   UNL     1      -8.986  -3.875 -30.510  1.00  0.00     0.303 C 
ATOM     22  O   UNL     1      -8.070  -4.641 -30.761  1.00  0.00    -0.252 OA
BRANCH  21  23
ATOM     23  O   UNL     1     -10.153  -4.299 -29.968  1.00  0.00    -0.481 OA
ATOM     24  H   UNL     1     -10.388  -5.215 -30.208  1.00  0.00     0.296 HD
ENDBRANCH  21  23
ENDBRANCH  20  21
ENDBRANCH  19  20
ENDBRANCH  18  19
ENDBRANCH  17  18
ENDBRANCH  16  17
ENDBRANCH  15  16
ENDBRANCH  14  15
ENDBRANCH   2  14
TORSDOF 19
ENDMDL
MODEL 7
REMARK VINA RESULT:      -6.6     14.707     19.569
REMARK SMILES CCCCCCCCCCC/C=C\CCCCCCCC(=O)O
REMARK SMILES IDX 12 1 13 2 11 3 10 4 9 5 8 6 7 7 6 8 5 9 4 10 3 11 2 12 1 13
REMARK SMILES IDX 14 14 15 15 16 16 17 17 18 18 19 19 20 20 21 21 22 22 23 23
REMARK H PARENT 23 24
ROOT
ATOM      1  C   UNL     1      -9.915  -0.902 -30.784  1.00  0.00    -0.031 C 
ATOM      2  C   UNL     1     -10.558   0.057 -31.469  1.00  0.00    -0.031 C 
ENDROOT
BRANCH   1   3
ATOM      3  C   UNL     1      -9.184  -2.095 -31.334  1.00  0.00     0.027 C 
BRANCH   3   4
ATOM      4  C   UNL     1      -7.833  -2.343 -30.654  1.00  0.00     0.004 C 
BRANCH   4   5
ATOM      5  C   UNL     1      -7.923  -3.293 -29.456  1.00  0.00     0.000 C 
BRANCH   5   6
ATOM      6  C   UNL     1      -7.234  -2.701 -28.223  1.00  0.00     0.000 C 
BRANCH   6   7
ATOM      7  C   UNL     1      -7.078  -1.184 -28.352  1.00  0.00     0.000 C 
BRANCH   7   8
ATOM      8  C   UNL     1      -5.615  -0.761 -28.222  1.00  0.00     0.000 C 
BRANCH   8   9
ATOM      9  C   UNL     1      -4.690  -1.977 -28.129  1.00  0.00    -0.000 C 
BRANCH   9  10
ATOM     10  C   UNL     1      -3.395  -1.753 -28.909  1.00  0.00    -0.000 C 
BRANCH  10  11
ATOM     11  C   UNL     1      -3.353  -0.356 -29.530  1.00  0.00    -0.000 C 
BRANCH  11  12
ATOM     12  C   UNL     1      -2.036   0.353 -29.217  1.00  0.00    -0.003 C 
ATOM     13  C   UNL     1      -2.041   0.945 -27.816  1.00  0.00     0.004 C 
ENDBRANCH  11  12
ENDBRANCH  10  11
ENDBRANCH   9  10
ENDBRANCH   8   9
ENDBRANCH   7   8
ENDBRANCH   6   7
ENDBRANCH   5   6
ENDBRANCH   4   5
ENDBRANCH   3   4
ENDBRANCH   1   3
BRANCH   2  14
ATOM     14  C   UNL     1     -10.700   0.191 -32.960  1.00  0.00     0.027 C 
BRANCH  14  15
ATOM     15  C   UNL     1      -9.667   1.167 -33.529  1.00  0.00     0.004 C 
BRANCH  15  16
ATOM     16  C   UNL     1      -8.314   0.482 -33.734  1.00  0.00     0.000 C 
BRANCH  16  17
ATOM     17  C   UNL     1      -7.164   1.352 -33.224  1.00  0.00     0.000 C 
BRANCH  17  18
ATOM     18  C   UNL     1      -6.640   0.847 -31.878  1.00  0.00     0.001 C 
BRANCH  18  19
ATOM     19  C   UNL     1      -7.178   1.688 -30.720  1.00  0.00     0.012 C 
BRANCH  19  20
ATOM     20  C   UNL     1      -6.140   2.702 -30.241  1.00  0.00     0.122 C 
BRANCH  20  21
ATOM     21  C   UNL     1      -6.068   2.768 -28.733  1.00  0.00     0.303 C 
ATOM     22  O   UNL     1      -7.008   2.612 -27.970  1.00  0.00    -0.252 OA
BRANCH  21  23
ATOM     23  O   UNL     1      -4.814   3.025 -28.292  1.00  0.00    -0.481 OA
ATOM     24  H   UNL     1      -4.659   3.964 -28.073  1.00  0.00     0.296 HD
ENDBRANCH  21  23
ENDBRANCH  20  21
ENDBRANCH  19  20
ENDBRANCH  18  19
ENDBRANCH  17  18
ENDBRANCH  16  17
ENDBRANCH  15  16
ENDBRANCH  14  15
ENDBRANCH   2  14
TORSDOF 19
ENDMDL
MODEL 8
REMARK VINA RESULT:      -6.5     15.593     19.908
REMARK SMILES CCCCCCCCCCC/C=C\CCCCCCCC(=O)O
REMARK SMILES IDX 12 1 13 2 11 3 10 4 9 5 8 6 7 7 6 8 5 9 4 10 3 11 2 12 1 13
REMARK SMILES IDX 14 14 15 15 16 16 17 17 18 18 19 19 20 20 21 21 22 22 23 23
REMARK H PARENT 23 24
ROOT
ATOM      1  C   UNL     1      -4.182   2.274 -28.715  1.00  0.00    -0.031 C 
ATOM      2  C   UNL     1      -3.087   1.568 -28.388  1.00  0.00    -0.031 C 
ENDROOT
BRANCH   1   3
ATOM      3  C   UNL     1      -4.932   2.260 -30.018  1.00  0.00     0.027 C 
BRANCH   3   4
ATOM      4  C   UNL     1      -6.395   2.694 -29.878  1.00  0.00     0.004 C 
BRANCH   4   5
ATOM      5  C   UNL     1      -7.341   1.950 -30.825  1.00  0.00     0.000 C 
BRANCH   5   6
ATOM      6  C   UNL     1      -6.573   1.286 -31.970  1.00  0.00     0.000 C 
BRANCH   6   7
ATOM      7  C   UNL     1      -7.426   1.208 -33.237  1.00  0.00     0.000 C 
BRANCH   7   8
ATOM      8  C   UNL     1      -8.809   1.825 -33.019  1.00  0.00     0.000 C 
BRANCH   8   9
ATOM      9  C   UNL     1      -9.884   1.073 -33.806  1.00  0.00    -0.000 C 
BRANCH   9  10
ATOM     10  C   UNL     1     -10.027  -0.369 -33.318  1.00  0.00    -0.000 C 
BRANCH  10  11
ATOM     11  C   UNL     1     -10.738  -0.430 -31.965  1.00  0.00    -0.000 C 
BRANCH  11  12
ATOM     12  C   UNL     1      -9.824  -1.000 -30.881  1.00  0.00    -0.003 C 
ATOM     13  C   UNL     1      -8.786  -1.944 -31.468  1.00  0.00     0.004 C 
ENDBRANCH  11  12
ENDBRANCH  10  11
ENDBRANCH   9  10
ENDBRANCH   8   9
ENDBRANCH   7   8
ENDBRANCH   6   7
ENDBRANCH   5   6
ENDBRANCH   4   5
ENDBRANCH   3   4
ENDBRANCH   1   3
BRANCH   2  14
ATOM     14  C   UNL     1      -2.341   0.575 -29.234  1.00  0.00     0.027 C 
BRANCH  14  15
ATOM     15  C   UNL     1      -2.807  -0.855 -28.950  1.00  0.00     0.004 C 
BRANCH  15  16
ATOM     16  C   UNL     1      -3.834  -1.318 -29.985  1.00  0.00     0.000 C 
BRANCH  16  17
ATOM     17  C   UNL     1      -5.034  -1.993 -29.319  1.00  0.00     0.000 C 
BRANCH  17  18
ATOM     18  C   UNL     1      -6.186  -1.006 -29.122  1.00  0.00     0.001 C 
BRANCH  18  19
ATOM     19  C   UNL     1      -6.471  -0.772 -27.638  1.00  0.00     0.012 C 
BRANCH  19  20
ATOM     20  C   UNL     1      -5.510  -1.566 -26.755  1.00  0.00     0.122 C 
BRANCH  20  21
ATOM     21  C   UNL     1      -5.441  -1.011 -25.351  1.00  0.00     0.303 C 
ATOM     22  O   UNL     1      -4.747  -0.073 -24.992  1.00  0.00    -0.252 OA
BRANCH  21  23
ATOM     23  O   UNL     1      -6.254  -1.677 -24.498  1.00  0.00    -0.481 OA
ATOM     24  H   UNL     1      -6.454  -2.591 -24.778  1.00  0.00     0.296 HD
ENDBRANCH  21  23
ENDBRANCH  20  21
ENDBRANCH  19  20
ENDBRANCH  18  19
ENDBRANCH  17  18
ENDBRANCH  16  17
ENDBRANCH  15  16
ENDBRANCH  14  15
ENDBRANCH   2  14
TORSDOF 19
ENDMDL
MODEL 9
REMARK VINA RESULT:      -6.5     15.774     18.294
REMARK SMILES CCCCCCCCCCC/C=C\CCCCCCCC(=O)O
REMARK SMILES IDX 12 1 13 2 11 3 10 4 9 5 8 6 7 7 6 8 5 9 4 10 3 11 2 12 1 13
REMARK SMILES IDX 14 14 15 15 16 16 17 17 18 18 19 19 20 20 21 21 22 22 23 23
REMARK H PARENT 23 24
ROOT
ATOM      1  C   UNL     1      -7.750   1.148 -25.792  1.00  0.00    -0.031 C 
ATOM      2  C   UNL     1      -7.614   1.821 -26.946  1.00  0.00    -0.031 C 
ENDROOT
BRANCH   1   3
ATOM      3  C   UNL     1      -7.026  -0.096 -25.359  1.00  0.00     0.027 C 
BRANCH   3   4
ATOM      4  C   UNL     1      -5.543   0.143 -25.053  1.00  0.00     0.004 C 
BRANCH   4   5
ATOM      5  C   UNL     1      -4.602  -0.710 -25.909  1.00  0.00     0.000 C 
BRANCH   5   6
ATOM      6  C   UNL     1      -5.383  -1.700 -26.775  1.00  0.00     0.000 C 
BRANCH   6   7
ATOM      7  C   UNL     1      -4.531  -2.206 -27.941  1.00  0.00     0.000 C 
BRANCH   7   8
ATOM      8  C   UNL     1      -5.055  -1.688 -29.281  1.00  0.00     0.000 C 
BRANCH   8   9
ATOM      9  C   UNL     1      -4.006  -0.832 -29.994  1.00  0.00    -0.000 C 
BRANCH   9  10
ATOM     10  C   UNL     1      -2.658  -0.888 -29.275  1.00  0.00    -0.000 C 
BRANCH  10  11
ATOM     11  C   UNL     1      -2.149   0.514 -28.936  1.00  0.00    -0.000 C 
BRANCH  11  12
ATOM     12  C   UNL     1      -3.233   1.568 -29.161  1.00  0.00    -0.003 C 
ATOM     13  C   UNL     1      -3.136   2.692 -28.141  1.00  0.00     0.004 C 
ENDBRANCH  11  12
ENDBRANCH  10  11
ENDBRANCH   9  10
ENDBRANCH   8   9
ENDBRANCH   7   8
ENDBRANCH   6   7
ENDBRANCH   5   6
ENDBRANCH   4   5
ENDBRANCH   3   4
ENDBRANCH   1   3
BRANCH   2  14
ATOM     14  C   UNL     1      -6.693   1.511 -28.093  1.00  0.00     0.027 C 
BRANCH  14  15
ATOM     15  C   UNL     1      -7.481   1.144 -29.352  1.00  0.00     0.004 C 
BRANCH  15  16
ATOM     16  C   UNL     1      -7.265   2.177 -30.460  1.00  0.00     0.000 C 
BRANCH  16  17
ATOM     17  C   UNL     1      -6.235   1.693 -31.483  1.00  0.00     0.000 C 
BRANCH  17  18
ATOM     18  C   UNL     1      -6.901   0.894 -32.605  1.00  0.00     0.001 C 
BRANCH  18  19
ATOM     19  C   UNL     1      -8.248   1.501 -32.996  1.00  0.00     0.012 C 
BRANCH  19  20
ATOM     20  C   UNL     1      -9.214   0.430 -33.503  1.00  0.00     0.122 C 
BRANCH  20  21
ATOM     21  C   UNL     1     -10.531   0.462 -32.764  1.00  0.00     0.303 C 
ATOM     22  O   UNL     1     -11.503  -0.231 -33.016  1.00  0.00    -0.252 OA
BRANCH  21  23
ATOM     23  O   UNL     1     -10.531   1.367 -31.757  1.00  0.00    -0.481 OA
ATOM     24  H   UNL     1     -10.257   2.262 -32.033  1.00  0.00     0.296 HD
ENDBRANCH  21  23
ENDBRANCH  20  21
ENDBRANCH  19  20
ENDBRANCH  18  19
ENDBRANCH  17  18
ENDBRANCH  16  17
ENDBRANCH  15  16
ENDBRANCH  14  15
ENDBRANCH   2  14
TORSDOF 19
ENDMDL
MODEL 10
REMARK VINA RESULT:      -6.4     15.660     20.107
REMARK SMILES CCCCCCCCCCC/C=C\CCCCCCCC(=O)O
REMARK SMILES IDX 12 1 13 2 11 3 10 4 9 5 8 6 7 7 6 8 5 9 4 10 3 11 2 12 1 13
REMARK SMILES IDX 14 14 15 15 16 16 17 17 18 18 19 19 20 20 21 21 22 22 23 23
REMARK H PARENT 23 24
ROOT
ATOM      1  C   UNL     1      -2.376  -0.002 -28.955  1.00  0.00    -0.031 C 
ATOM      2  C   UNL     1      -3.033  -1.155 -29.162  1.00  0.00    -0.031 C 
ENDROOT
BRANCH   1   3
ATOM      3  C   UNL     1      -2.664   1.050 -27.921  1.00  0.00     0.027 C 
BRANCH   3   4
ATOM      4  C   UNL     1      -3.331   2.302 -28.501  1.00  0.00     0.004 C 
BRANCH   4   5
ATOM      5  C   UNL     1      -4.791   2.079 -28.905  1.00  0.00     0.000 C 
BRANCH   5   6
ATOM      6  C   UNL     1      -5.015   2.405 -30.384  1.00  0.00     0.000 C 
BRANCH   6   7
ATOM      7  C   UNL     1      -6.470   2.161 -30.790  1.00  0.00     0.000 C 
BRANCH   7   8
ATOM      8  C   UNL     1      -6.666   0.748 -31.341  1.00  0.00     0.000 C 
BRANCH   8   9
ATOM      9  C   UNL     1      -7.407   0.771 -32.679  1.00  0.00    -0.000 C 
BRANCH   9  10
ATOM     10  C   UNL     1      -8.688   1.601 -32.594  1.00  0.00    -0.000 C 
BRANCH  10  11
ATOM     11  C   UNL     1      -9.693   1.186 -33.670  1.00  0.00    -0.000 C 
BRANCH  11  12
ATOM     12  C   UNL     1     -10.211  -0.232 -33.430  1.00  0.00    -0.003 C 
ATOM     13  C   UNL     1     -10.696  -0.412 -32.000  1.00  0.00     0.004 C 
ENDBRANCH  11  12
ENDBRANCH  10  11
ENDBRANCH   9  10
ENDBRANCH   8   9
ENDBRANCH   7   8
ENDBRANCH   6   7
ENDBRANCH   5   6
ENDBRANCH   4   5
ENDBRANCH   3   4
ENDBRANCH   1   3
BRANCH   2  14
ATOM     14  C   UNL     1      -4.216  -1.693 -28.406  1.00  0.00     0.027 C 
BRANCH  14  15
ATOM     15  C   UNL     1      -5.423  -1.881 -29.327  1.00  0.00     0.004 C 
BRANCH  15  16
ATOM     16  C   UNL     1      -6.735  -1.766 -28.549  1.00  0.00     0.000 C 
BRANCH  16  17
ATOM     17  C   UNL     1      -7.609  -3.008 -28.740  1.00  0.00     0.000 C 
BRANCH  17  18
ATOM     18  C   UNL     1      -8.911  -2.664 -29.467  1.00  0.00     0.001 C 
BRANCH  18  19
ATOM     19  C   UNL     1      -9.258  -3.720 -30.516  1.00  0.00     0.012 C 
BRANCH  19  20
ATOM     20  C   UNL     1      -9.317  -5.118 -29.900  1.00  0.00     0.122 C 
BRANCH  20  21
ATOM     21  C   UNL     1     -10.738  -5.570 -29.660  1.00  0.00     0.303 C 
ATOM     22  O   UNL     1     -11.355  -5.449 -28.615  1.00  0.00    -0.252 OA
BRANCH  21  23
ATOM     23  O   UNL     1     -11.283  -6.146 -30.758  1.00  0.00    -0.481 OA
ATOM     24  H   UNL     1     -12.212  -6.423 -30.636  1.00  0.00     0.296 HD
ENDBRANCH  21  23
ENDBRANCH  20  21
ENDBRANCH  19  20
ENDBRANCH  18  19
ENDBRANCH  17  18
ENDBRANCH  16  17
ENDBRANCH  15  16
ENDBRANCH  14  15
ENDBRANCH   2  14
TORSDOF 19
ENDMDL
