MODEL 1
REMARK VINA RESULT:      -5.0      0.000      0.000
REMARK SMILES COc1ccc(O)cc1OC
REMARK SMILES IDX 3 1 9 2 8 3 6 4 5 5 4 6 2 7 1 8 10 9 11 10 7 11
REMARK H PARENT 7 12
ROOT
ATOM      1  C   UNL     1      -4.469   0.024 -30.283  1.00  0.00     0.160 A 
ATOM      2  C   UNL     1      -4.360   1.366 -29.875  1.00  0.00     0.164 A 
ATOM      3  C   UNL     1      -3.368   1.718 -28.944  1.00  0.00     0.096 A 
ATOM      4  C   UNL     1      -2.483   0.755 -28.460  1.00  0.00     0.119 A 
ATOM      5  C   UNL     1      -2.567  -0.561 -28.881  1.00  0.00     0.050 A 
ATOM      6  C   UNL     1      -3.557  -0.923 -29.790  1.00  0.00     0.054 A 
ENDROOT
BRANCH   1   7
ATOM      7  O   UNL     1      -5.359  -0.525 -31.170  1.00  0.00    -0.493 OA
ATOM      8  C   UNL     1      -6.600  -1.003 -30.672  1.00  0.00     0.278 C 
ENDBRANCH   1   7
BRANCH   2   9
ATOM      9  O   UNL     1      -5.242   2.282 -30.386  1.00  0.00    -0.493 OA
ATOM     10  C   UNL     1      -4.802   3.632 -30.472  1.00  0.00     0.278 C 
ENDBRANCH   2   9
BRANCH   4  11
ATOM     11  O   UNL     1      -1.506   1.072 -27.563  1.00  0.00    -0.508 OA
ATOM     12  H   UNL     1      -0.646   0.797 -27.921  1.00  0.00     0.293 HD
ENDBRANCH   4  11
TORSDOF 3
ENDMDL
MODEL 2
REMARK VINA RESULT:      -5.0      2.520      3.303
REMARK SMILES COc1ccc(O)cc1OC
REMARK SMILES IDX 3 1 9 2 8 3 6 4 5 5 4 6 2 7 1 8 10 9 11 10 7 11
REMARK H PARENT 7 12
ROOT
ATOM      1  C   UNL     1      -3.110  -0.544 -28.703  1.00  0.00     0.160 A 
ATOM      2  C   UNL     1      -3.290   0.344 -27.627  1.00  0.00     0.164 A 
ATOM      3  C   UNL     1      -4.148  -0.023 -26.575  1.00  0.00     0.096 A 
ATOM      4  C   UNL     1      -4.782  -1.265 -26.585  1.00  0.00     0.119 A 
ATOM      5  C   UNL     1      -4.585  -2.154 -27.628  1.00  0.00     0.050 A 
ATOM      6  C   UNL     1      -3.751  -1.793 -28.682  1.00  0.00     0.054 A 
ENDROOT
BRANCH   1   7
ATOM      7  O   UNL     1      -2.328  -0.381 -29.818  1.00  0.00    -0.493 OA
ATOM      8  C   UNL     1      -2.969  -0.273 -31.080  1.00  0.00     0.278 C 
ENDBRANCH   1   7
BRANCH   2   9
ATOM      9  O   UNL     1      -2.636   1.548 -27.652  1.00  0.00    -0.493 OA
ATOM     10  C   UNL     1      -3.250   2.606 -28.378  1.00  0.00     0.278 C 
ENDBRANCH   2   9
BRANCH   4  11
ATOM     11  O   UNL     1      -5.612  -1.649 -25.573  1.00  0.00    -0.508 OA
ATOM     12  H   UNL     1      -5.763  -2.606 -25.633  1.00  0.00     0.293 HD
ENDBRANCH   4  11
TORSDOF 3
ENDMDL
MODEL 3
REMARK VINA RESULT:      -5.0      3.559      6.613
REMARK SMILES COc1ccc(O)cc1OC
REMARK SMILES IDX 3 1 9 2 8 3 6 4 5 5 4 6 2 7 1 8 10 9 11 10 7 11
REMARK H PARENT 7 12
ROOT
ATOM      1  C   UNL     1      -7.652  -0.219 -31.881  1.00  0.00     0.160 A 
ATOM      2  C   UNL     1      -8.872  -0.912 -31.986  1.00  0.00     0.164 A 
ATOM      3  C   UNL     1     -10.025  -0.211 -32.377  1.00  0.00     0.096 A 
ATOM      4  C   UNL     1      -9.951   1.145 -32.691  1.00  0.00     0.119 A 
ATOM      5  C   UNL     1      -8.747   1.826 -32.618  1.00  0.00     0.050 A 
ATOM      6  C   UNL     1      -7.603   1.144 -32.215  1.00  0.00     0.054 A 
ENDROOT
BRANCH   1   7
ATOM      7  O   UNL     1      -6.424  -0.708 -31.517  1.00  0.00    -0.493 OA
ATOM      8  C   UNL     1      -6.076  -0.699 -30.141  1.00  0.00     0.278 C 
ENDBRANCH   1   7
BRANCH   2   9
ATOM      9  O   UNL     1      -8.896  -2.248 -31.681  1.00  0.00    -0.493 OA
ATOM     10  C   UNL     1      -9.437  -2.618 -30.418  1.00  0.00     0.278 C 
ENDBRANCH   2   9
BRANCH   4  11
ATOM     11  O   UNL     1     -11.053   1.848 -33.082  1.00  0.00    -0.508 OA
ATOM     12  H   UNL     1     -11.113   2.662 -32.556  1.00  0.00     0.293 HD
ENDBRANCH   4  11
TORSDOF 3
ENDMDL
MODEL 4
REMARK VINA RESULT:      -4.9      3.340      6.698
REMARK SMILES COc1ccc(O)cc1OC
REMARK SMILES IDX 3 1 9 2 8 3 6 4 5 5 4 6 2 7 1 8 10 9 11 10 7 11
REMARK H PARENT 7 12
ROOT
ATOM      1  C   UNL     1      -7.434  -0.433 -31.804  1.00  0.00     0.160 A 
ATOM      2  C   UNL     1      -8.401  -1.389 -31.441  1.00  0.00     0.164 A 
ATOM      3  C   UNL     1      -9.725  -1.222 -31.881  1.00  0.00     0.096 A 
ATOM      4  C   UNL     1     -10.066  -0.143 -32.695  1.00  0.00     0.119 A 
ATOM      5  C   UNL     1      -9.112   0.785 -33.079  1.00  0.00     0.050 A 
ATOM      6  C   UNL     1      -7.801   0.638 -32.635  1.00  0.00     0.054 A 
ENDROOT
BRANCH   1   7
ATOM      7  O   UNL     1      -6.102  -0.407 -31.481  1.00  0.00    -0.493 OA
ATOM      8  C   UNL     1      -5.706   0.288 -30.308  1.00  0.00     0.278 C 
ENDBRANCH   1   7
BRANCH   2   9
ATOM      9  O   UNL     1      -8.020  -2.442 -30.651  1.00  0.00    -0.493 OA
ATOM     10  C   UNL     1      -8.798  -3.630 -30.730  1.00  0.00     0.278 C 
ENDBRANCH   2   9
BRANCH   4  11
ATOM     11  O   UNL     1     -11.341   0.039 -33.144  1.00  0.00    -0.508 OA
ATOM     12  H   UNL     1     -11.752  -0.829 -33.289  1.00  0.00     0.293 HD
ENDBRANCH   4  11
TORSDOF 3
ENDMDL
MODEL 5
REMARK VINA RESULT:      -4.9      2.106      3.077
REMARK SMILES COc1ccc(O)cc1OC
REMARK SMILES IDX 3 1 9 2 8 3 6 4 5 5 4 6 2 7 1 8 10 9 11 10 7 11
REMARK H PARENT 7 12
ROOT
ATOM      1  C   UNL     1      -4.051  -0.229 -27.956  1.00  0.00     0.160 A 
ATOM      2  C   UNL     1      -3.949   0.865 -28.834  1.00  0.00     0.164 A 
ATOM      3  C   UNL     1      -3.560   0.639 -30.166  1.00  0.00     0.096 A 
ATOM      4  C   UNL     1      -3.314  -0.657 -30.617  1.00  0.00     0.119 A 
ATOM      5  C   UNL     1      -3.442  -1.741 -29.764  1.00  0.00     0.050 A 
ATOM      6  C   UNL     1      -3.810  -1.525 -28.439  1.00  0.00     0.054 A 
ENDROOT
BRANCH   1   7
ATOM      7  O   UNL     1      -4.407  -0.226 -26.632  1.00  0.00    -0.493 OA
ATOM      8  C   UNL     1      -5.109  -1.348 -26.120  1.00  0.00     0.278 C 
ENDBRANCH   1   7
BRANCH   2   9
ATOM      9  O   UNL     1      -4.213   2.121 -28.353  1.00  0.00    -0.493 OA
ATOM     10  C   UNL     1      -3.169   3.084 -28.438  1.00  0.00     0.278 C 
ENDBRANCH   2   9
BRANCH   4  11
ATOM     11  O   UNL     1      -2.944  -0.906 -31.905  1.00  0.00    -0.508 OA
ATOM     12  H   UNL     1      -3.136  -1.834 -32.117  1.00  0.00     0.293 HD
ENDBRANCH   4  11
TORSDOF 3
ENDMDL
MODEL 6
REMARK VINA RESULT:      -4.8      1.899      2.047
REMARK SMILES COc1ccc(O)cc1OC
REMARK SMILES IDX 3 1 9 2 8 3 6 4 5 5 4 6 2 7 1 8 10 9 11 10 7 11
REMARK H PARENT 7 12
ROOT
ATOM      1  C   UNL     1      -4.552  -0.538 -29.841  1.00  0.00     0.160 A 
ATOM      2  C   UNL     1      -4.774  -0.187 -28.497  1.00  0.00     0.164 A 
ATOM      3  C   UNL     1      -3.707   0.324 -27.739  1.00  0.00     0.096 A 
ATOM      4  C   UNL     1      -2.455   0.514 -28.324  1.00  0.00     0.119 A 
ATOM      5  C   UNL     1      -2.239   0.197 -29.654  1.00  0.00     0.050 A 
ATOM      6  C   UNL     1      -3.285  -0.326 -30.409  1.00  0.00     0.054 A 
ENDROOT
BRANCH   1   7
ATOM      7  O   UNL     1      -5.446  -1.051 -30.744  1.00  0.00    -0.493 OA
ATOM      8  C   UNL     1      -6.349  -0.160 -31.380  1.00  0.00     0.278 C 
ENDBRANCH   1   7
BRANCH   2   9
ATOM      9  O   UNL     1      -6.023  -0.376 -27.966  1.00  0.00    -0.493 OA
ATOM     10  C   UNL     1      -6.760   0.786 -27.605  1.00  0.00     0.278 C 
ENDBRANCH   2   9
BRANCH   4  11
ATOM     11  O   UNL     1      -1.405   1.016 -27.614  1.00  0.00    -0.508 OA
ATOM     12  H   UNL     1      -1.665   1.106 -26.683  1.00  0.00     0.293 HD
ENDBRANCH   4  11
TORSDOF 3
ENDMDL
MODEL 7
REMARK VINA RESULT:      -4.8      2.188      4.088
REMARK SMILES COc1ccc(O)cc1OC
REMARK SMILES IDX 3 1 9 2 8 3 6 4 5 5 4 6 2 7 1 8 10 9 11 10 7 11
REMARK H PARENT 7 12
ROOT
ATOM      1  C   UNL     1      -3.617  -0.876 -28.736  1.00  0.00     0.160 A 
ATOM      2  C   UNL     1      -4.421  -1.178 -29.850  1.00  0.00     0.164 A 
ATOM      3  C   UNL     1      -5.637  -1.855 -29.651  1.00  0.00     0.096 A 
ATOM      4  C   UNL     1      -6.054  -2.188 -28.363  1.00  0.00     0.119 A 
ATOM      5  C   UNL     1      -5.280  -1.867 -27.261  1.00  0.00     0.050 A 
ATOM      6  C   UNL     1      -4.066  -1.212 -27.449  1.00  0.00     0.054 A 
ENDROOT
BRANCH   1   7
ATOM      7  O   UNL     1      -2.406  -0.231 -28.710  1.00  0.00    -0.493 OA
ATOM      8  C   UNL     1      -2.283   0.940 -27.919  1.00  0.00     0.278 C 
ENDBRANCH   1   7
BRANCH   2   9
ATOM      9  O   UNL     1      -3.978  -0.819 -31.096  1.00  0.00    -0.493 OA
ATOM     10  C   UNL     1      -4.231   0.516 -31.516  1.00  0.00     0.278 C 
ENDBRANCH   2   9
BRANCH   4  11
ATOM     11  O   UNL     1      -7.233  -2.837 -28.141  1.00  0.00    -0.508 OA
ATOM     12  H   UNL     1      -7.371  -3.494 -28.843  1.00  0.00     0.293 HD
ENDBRANCH   4  11
TORSDOF 3
ENDMDL
MODEL 8
REMARK VINA RESULT:      -4.8      2.339      3.039
REMARK SMILES COc1ccc(O)cc1OC
REMARK SMILES IDX 3 1 9 2 8 3 6 4 5 5 4 6 2 7 1 8 10 9 11 10 7 11
REMARK H PARENT 7 12
ROOT
ATOM      1  C   UNL     1      -4.401  -0.532 -28.859  1.00  0.00     0.160 A 
ATOM      2  C   UNL     1      -4.558  -0.732 -30.242  1.00  0.00     0.164 A 
ATOM      3  C   UNL     1      -3.473  -0.476 -31.098  1.00  0.00     0.096 A 
ATOM      4  C   UNL     1      -2.248  -0.063 -30.575  1.00  0.00     0.119 A 
ATOM      5  C   UNL     1      -2.079   0.107 -29.211  1.00  0.00     0.050 A 
ATOM      6  C   UNL     1      -3.153  -0.128 -28.358  1.00  0.00     0.054 A 
ENDROOT
BRANCH   1   7
ATOM      7  O   UNL     1      -5.324  -0.718 -27.862  1.00  0.00    -0.493 OA
ATOM      8  C   UNL     1      -4.890  -1.293 -26.640  1.00  0.00     0.278 C 
ENDBRANCH   1   7
BRANCH   2   9
ATOM      9  O   UNL     1      -5.776  -1.152 -30.711  1.00  0.00    -0.493 OA
ATOM     10  C   UNL     1      -6.607  -0.177 -31.328  1.00  0.00     0.278 C 
ENDBRANCH   2   9
BRANCH   4  11
ATOM     11  O   UNL     1      -1.176   0.184 -31.381  1.00  0.00    -0.508 OA
ATOM     12  H   UNL     1      -0.981   1.135 -31.368  1.00  0.00     0.293 HD
ENDBRANCH   4  11
TORSDOF 3
ENDMDL
MODEL 9
REMARK VINA RESULT:      -4.7      3.591      6.359
REMARK SMILES COc1ccc(O)cc1OC
REMARK SMILES IDX 3 1 9 2 8 3 6 4 5 5 4 6 2 7 1 8 10 9 11 10 7 11
REMARK H PARENT 7 12
ROOT
ATOM      1  C   UNL     1      -8.638  -1.219 -31.478  1.00  0.00     0.160 A 
ATOM      2  C   UNL     1      -8.014  -0.063 -31.982  1.00  0.00     0.164 A 
ATOM      3  C   UNL     1      -8.809   0.961 -32.525  1.00  0.00     0.096 A 
ATOM      4  C   UNL     1     -10.198   0.846 -32.528  1.00  0.00     0.119 A 
ATOM      5  C   UNL     1     -10.819  -0.277 -32.007  1.00  0.00     0.050 A 
ATOM      6  C   UNL     1     -10.039  -1.304 -31.483  1.00  0.00     0.054 A 
ENDROOT
BRANCH   1   7
ATOM      7  O   UNL     1      -8.053  -2.324 -30.915  1.00  0.00    -0.493 OA
ATOM      8  C   UNL     1      -8.832  -3.503 -30.777  1.00  0.00     0.278 C 
ENDBRANCH   1   7
BRANCH   2   9
ATOM      9  O   UNL     1      -6.646   0.014 -31.945  1.00  0.00    -0.493 OA
ATOM     10  C   UNL     1      -6.060   0.648 -30.815  1.00  0.00     0.278 C 
ENDBRANCH   2   9
BRANCH   4  11
ATOM     11  O   UNL     1     -10.994   1.828 -33.040  1.00  0.00    -0.508 OA
ATOM     12  H   UNL     1     -10.460   2.627 -33.183  1.00  0.00     0.293 HD
ENDBRANCH   4  11
TORSDOF 3
ENDMDL
MODEL 10
REMARK VINA RESULT:      -4.6      2.495      3.525
REMARK SMILES COc1ccc(O)cc1OC
REMARK SMILES IDX 3 1 9 2 8 3 6 4 5 5 4 6 2 7 1 8 10 9 11 10 7 11
REMARK H PARENT 7 12
ROOT
ATOM      1  C   UNL     1      -4.448  -1.156 -30.158  1.00  0.00     0.160 A 
ATOM      2  C   UNL     1      -5.746  -1.622 -29.878  1.00  0.00     0.164 A 
ATOM      3  C   UNL     1      -6.054  -2.041 -28.572  1.00  0.00     0.096 A 
ATOM      4  C   UNL     1      -5.096  -1.961 -27.563  1.00  0.00     0.119 A 
ATOM      5  C   UNL     1      -3.825  -1.477 -27.827  1.00  0.00     0.050 A 
ATOM      6  C   UNL     1      -3.506  -1.075 -29.121  1.00  0.00     0.054 A 
ENDROOT
BRANCH   1   7
ATOM      7  O   UNL     1      -3.945  -0.709 -31.353  1.00  0.00    -0.493 OA
ATOM      8  C   UNL     1      -4.037   0.677 -31.646  1.00  0.00     0.278 C 
ENDBRANCH   1   7
BRANCH   2   9
ATOM      9  O   UNL     1      -6.661  -1.669 -30.897  1.00  0.00    -0.493 OA
ATOM     10  C   UNL     1      -7.540  -0.560 -31.034  1.00  0.00     0.278 C 
ENDBRANCH   2   9
BRANCH   4  11
ATOM     11  O   UNL     1      -5.371  -2.353 -26.286  1.00  0.00    -0.508 OA
ATOM     12  H   UNL     1      -5.400  -3.323 -26.251  1.00  0.00     0.293 HD
ENDBRANCH   4  11
TORSDOF 3
ENDMDL
