MODEL 1
REMARK VINA RESULT:      -7.7      0.000      0.000
REMARK SMILES CCOC(=O)/C=C/c1ccc(O)c(O)c1
REMARK SMILES IDX 4 1 5 2 3 3 2 4 1 5 6 6 7 7 8 8 15 9 9 10 13 11 10 12 11 13
REMARK SMILES IDX 14 14 12 16
REMARK H PARENT 14 15 12 17
ROOT
ATOM      1  C   UNL     1       4.887  -2.309 -22.912  1.00  0.00     0.330 C 
ATOM      2  O   UNL     1       4.183  -3.304 -22.954  1.00  0.00    -0.247 OA
ENDROOT
BRANCH   1   3
ATOM      3  O   UNL     1       5.378  -1.613 -23.966  1.00  0.00    -0.463 OA
BRANCH   3   4
ATOM      4  C   UNL     1       4.423  -1.274 -24.983  1.00  0.00     0.230 C 
ATOM      5  C   UNL     1       5.022  -0.253 -25.933  1.00  0.00     0.049 C 
ENDBRANCH   3   4
ENDBRANCH   1   3
BRANCH   1   6
ATOM      6  C   UNL     1       5.375  -1.661 -21.677  1.00  0.00     0.094 C 
ATOM      7  C   UNL     1       6.059  -2.379 -20.773  1.00  0.00     0.016 C 
BRANCH   7   8
ATOM      8  C   UNL     1       6.630  -1.817 -19.541  1.00  0.00    -0.021 A 
ATOM      9  C   UNL     1       5.985  -2.081 -18.321  1.00  0.00     0.058 A 
ATOM     10  C   UNL     1       7.771  -0.997 -19.548  1.00  0.00     0.012 A 
ATOM     11  C   UNL     1       6.499  -1.554 -17.141  1.00  0.00     0.157 A 
ATOM     12  C   UNL     1       8.281  -0.471 -18.356  1.00  0.00     0.051 A 
ATOM     13  C   UNL     1       7.641  -0.759 -17.162  1.00  0.00     0.157 A 
BRANCH  11  14
ATOM     14  O   UNL     1       5.914  -1.793 -15.927  1.00  0.00    -0.504 OA
ATOM     15  H   UNL     1       6.521  -1.487 -15.232  1.00  0.00     0.293 HD
ENDBRANCH  11  14
BRANCH  13  16
ATOM     16  O   UNL     1       8.138  -0.249 -15.998  1.00  0.00    -0.504 OA
ATOM     17  H   UNL     1       7.435  -0.412 -15.338  1.00  0.00     0.293 HD
ENDBRANCH  13  16
ENDBRANCH   7   8
ENDBRANCH   1   6
TORSDOF 6
ENDMDL
MODEL 2
REMARK VINA RESULT:      -7.2      2.021      3.005
REMARK SMILES CCOC(=O)/C=C/c1ccc(O)c(O)c1
REMARK SMILES IDX 4 1 5 2 3 3 2 4 1 5 6 6 7 7 8 8 15 9 9 10 13 11 10 12 11 13
REMARK SMILES IDX 14 14 12 16
REMARK H PARENT 14 15 12 17
ROOT
ATOM      1  C   UNL     1       6.330  -2.489 -20.578  1.00  0.00     0.330 C 
ATOM      2  O   UNL     1       6.711  -3.641 -20.696  1.00  0.00    -0.247 OA
ENDROOT
BRANCH   1   3
ATOM      3  O   UNL     1       5.627  -1.767 -21.484  1.00  0.00    -0.463 OA
BRANCH   3   4
ATOM      4  C   UNL     1       4.888  -2.532 -22.448  1.00  0.00     0.230 C 
ATOM      5  C   UNL     1       4.907  -1.827 -23.792  1.00  0.00     0.049 C 
ENDBRANCH   3   4
ENDBRANCH   1   3
BRANCH   1   6
ATOM      6  C   UNL     1       6.582  -1.623 -19.409  1.00  0.00     0.094 C 
ATOM      7  C   UNL     1       7.841  -1.406 -18.997  1.00  0.00     0.016 C 
BRANCH   7   8
ATOM      8  C   UNL     1       8.199  -0.522 -17.879  1.00  0.00    -0.021 A 
ATOM      9  C   UNL     1       7.445   0.646 -17.681  1.00  0.00     0.058 A 
ATOM     10  C   UNL     1       9.289  -0.786 -17.033  1.00  0.00     0.012 A 
ATOM     11  C   UNL     1       7.769   1.506 -16.636  1.00  0.00     0.157 A 
ATOM     12  C   UNL     1       9.607   0.084 -15.986  1.00  0.00     0.051 A 
ATOM     13  C   UNL     1       8.840   1.222 -15.794  1.00  0.00     0.157 A 
BRANCH  11  14
ATOM     14  O   UNL     1       7.058   2.650 -16.393  1.00  0.00    -0.504 OA
ATOM     15  H   UNL     1       6.231   2.403 -15.944  1.00  0.00     0.293 HD
ENDBRANCH  11  14
BRANCH  13  16
ATOM     16  O   UNL     1       9.148   2.069 -14.771  1.00  0.00    -0.504 OA
ATOM     17  H   UNL     1       8.837   1.607 -13.967  1.00  0.00     0.293 HD
ENDBRANCH  13  16
ENDBRANCH   7   8
ENDBRANCH   1   6
TORSDOF 6
ENDMDL
MODEL 3
REMARK VINA RESULT:      -6.5      1.315      2.190
REMARK SMILES CCOC(=O)/C=C/c1ccc(O)c(O)c1
REMARK SMILES IDX 4 1 5 2 3 3 2 4 1 5 6 6 7 7 8 8 15 9 9 10 13 11 10 12 11 13
REMARK SMILES IDX 14 14 12 16
REMARK H PARENT 14 15 12 17
ROOT
ATOM      1  C   UNL     1       4.905  -1.648 -24.249  1.00  0.00     0.330 C 
ATOM      2  O   UNL     1       4.027  -2.398 -24.641  1.00  0.00    -0.247 OA
ENDROOT
BRANCH   1   3
ATOM      3  O   UNL     1       5.699  -0.856 -25.010  1.00  0.00    -0.463 OA
BRANCH   3   4
ATOM      4  C   UNL     1       5.100  -0.352 -26.214  1.00  0.00     0.230 C 
ATOM      5  C   UNL     1       6.153   0.328 -27.069  1.00  0.00     0.049 C 
ENDBRANCH   3   4
ENDBRANCH   1   3
BRANCH   1   6
ATOM      6  C   UNL     1       5.305  -1.467 -22.839  1.00  0.00     0.094 C 
ATOM      7  C   UNL     1       5.383  -2.531 -22.025  1.00  0.00     0.016 C 
BRANCH   7   8
ATOM      8  C   UNL     1       5.820  -2.463 -20.624  1.00  0.00    -0.021 A 
ATOM      9  C   UNL     1       6.480  -1.304 -20.183  1.00  0.00     0.058 A 
ATOM     10  C   UNL     1       5.636  -3.529 -19.727  1.00  0.00     0.012 A 
ATOM     11  C   UNL     1       6.913  -1.217 -18.864  1.00  0.00     0.157 A 
ATOM     12  C   UNL     1       6.074  -3.433 -18.403  1.00  0.00     0.051 A 
ATOM     13  C   UNL     1       6.706  -2.274 -17.982  1.00  0.00     0.157 A 
BRANCH  11  14
ATOM     14  O   UNL     1       7.549  -0.105 -18.383  1.00  0.00    -0.504 OA
ATOM     15  H   UNL     1       6.915   0.633 -18.386  1.00  0.00     0.293 HD
ENDBRANCH  11  14
BRANCH  13  16
ATOM     16  O   UNL     1       7.132  -2.178 -16.689  1.00  0.00    -0.504 OA
ATOM     17  H   UNL     1       6.719  -2.940 -16.238  1.00  0.00     0.293 HD
ENDBRANCH  13  16
ENDBRANCH   7   8
ENDBRANCH   1   6
TORSDOF 6
ENDMDL
MODEL 4
REMARK VINA RESULT:      -6.5     13.638     17.962
REMARK SMILES CCOC(=O)/C=C/c1ccc(O)c(O)c1
REMARK SMILES IDX 4 1 5 2 3 3 2 4 1 5 6 6 7 7 8 8 15 9 9 10 13 11 10 12 11 13
REMARK SMILES IDX 14 14 12 16
REMARK H PARENT 14 15 12 17
ROOT
ATOM      1  C   UNL     1      -3.948  -0.520 -30.560  1.00  0.00     0.330 C 
ATOM      2  O   UNL     1      -3.406  -1.521 -30.996  1.00  0.00    -0.247 OA
ENDROOT
BRANCH   1   3
ATOM      3  O   UNL     1      -3.619   0.161 -29.436  1.00  0.00    -0.463 OA
BRANCH   3   4
ATOM      4  C   UNL     1      -2.242   0.073 -29.039  1.00  0.00     0.230 C 
ATOM      5  C   UNL     1      -1.983   1.003 -27.868  1.00  0.00     0.049 C 
ENDBRANCH   3   4
ENDBRANCH   1   3
BRANCH   1   6
ATOM      6  C   UNL     1      -5.113   0.153 -31.171  1.00  0.00     0.094 C 
ATOM      7  C   UNL     1      -6.328  -0.410 -31.089  1.00  0.00     0.016 C 
BRANCH   7   8
ATOM      8  C   UNL     1      -7.555   0.203 -31.617  1.00  0.00    -0.021 A 
ATOM      9  C   UNL     1      -8.771  -0.066 -30.969  1.00  0.00     0.058 A 
ATOM     10  C   UNL     1      -7.556   1.012 -32.766  1.00  0.00     0.012 A 
ATOM     11  C   UNL     1      -9.949   0.493 -31.454  1.00  0.00     0.157 A 
ATOM     12  C   UNL     1      -8.744   1.570 -33.246  1.00  0.00     0.051 A 
ATOM     13  C   UNL     1      -9.932   1.308 -32.581  1.00  0.00     0.157 A 
BRANCH  11  14
ATOM     14  O   UNL     1     -11.157   0.271 -30.850  1.00  0.00    -0.504 OA
ATOM     15  H   UNL     1     -11.033  -0.403 -30.160  1.00  0.00     0.293 HD
ENDBRANCH  11  14
BRANCH  13  16
ATOM     16  O   UNL     1     -11.092   1.854 -33.047  1.00  0.00    -0.504 OA
ATOM     17  H   UNL     1     -11.624   2.022 -32.244  1.00  0.00     0.293 HD
ENDBRANCH  13  16
ENDBRANCH   7   8
ENDBRANCH   1   6
TORSDOF 6
ENDMDL
MODEL 5
REMARK VINA RESULT:      -6.3     17.174     18.850
REMARK SMILES CCOC(=O)/C=C/c1ccc(O)c(O)c1
REMARK SMILES IDX 4 1 5 2 3 3 2 4 1 5 6 6 7 7 8 8 15 9 9 10 13 11 10 12 11 13
REMARK SMILES IDX 14 14 12 16
REMARK H PARENT 14 15 12 17
ROOT
ATOM      1  C   UNL     1      -7.100  -0.971 -31.205  1.00  0.00     0.330 C 
ATOM      2  O   UNL     1      -5.942  -1.039 -30.828  1.00  0.00    -0.247 OA
ENDROOT
BRANCH   1   3
ATOM      3  O   UNL     1      -7.602  -0.133 -32.144  1.00  0.00    -0.463 OA
BRANCH   3   4
ATOM      4  C   UNL     1      -8.899  -0.481 -32.655  1.00  0.00     0.230 C 
ATOM      5  C   UNL     1      -9.268   0.444 -33.799  1.00  0.00     0.049 C 
ENDBRANCH   3   4
ENDBRANCH   1   3
BRANCH   1   6
ATOM      6  C   UNL     1      -8.215  -1.788 -30.686  1.00  0.00     0.094 C 
ATOM      7  C   UNL     1      -7.961  -2.963 -30.089  1.00  0.00     0.016 C 
BRANCH   7   8
ATOM      8  C   UNL     1      -8.993  -3.823 -29.495  1.00  0.00    -0.021 A 
ATOM      9  C   UNL     1      -9.746  -4.651 -30.345  1.00  0.00     0.058 A 
ATOM     10  C   UNL     1      -9.278  -3.814 -28.119  1.00  0.00     0.012 A 
ATOM     11  C   UNL     1     -10.736  -5.468 -29.810  1.00  0.00     0.157 A 
ATOM     12  C   UNL     1     -10.275  -4.640 -27.591  1.00  0.00     0.051 A 
ATOM     13  C   UNL     1     -10.993  -5.463 -28.442  1.00  0.00     0.157 A 
BRANCH  11  14
ATOM     14  O   UNL     1     -11.487  -6.302 -30.594  1.00  0.00    -0.504 OA
ATOM     15  H   UNL     1     -12.355  -6.417 -30.170  1.00  0.00     0.293 HD
ENDBRANCH  11  14
BRANCH  13  16
ATOM     16  O   UNL     1     -11.965  -6.271 -27.928  1.00  0.00    -0.504 OA
ATOM     17  H   UNL     1     -11.726  -6.372 -26.985  1.00  0.00     0.293 HD
ENDBRANCH  13  16
ENDBRANCH   7   8
ENDBRANCH   1   6
TORSDOF 6
ENDMDL
MODEL 6
REMARK VINA RESULT:      -6.2     13.834     18.274
REMARK SMILES CCOC(=O)/C=C/c1ccc(O)c(O)c1
REMARK SMILES IDX 4 1 5 2 3 3 2 4 1 5 6 6 7 7 8 8 15 9 9 10 13 11 10 12 11 13
REMARK SMILES IDX 14 14 12 16
REMARK H PARENT 14 15 12 17
ROOT
ATOM      1  C   UNL     1      -3.808   0.318 -30.703  1.00  0.00     0.330 C 
ATOM      2  O   UNL     1      -2.824  -0.246 -31.151  1.00  0.00    -0.247 OA
ENDROOT
BRANCH   1   3
ATOM      3  O   UNL     1      -3.826   1.358 -29.834  1.00  0.00    -0.463 OA
BRANCH   3   4
ATOM      4  C   UNL     1      -3.759   1.004 -28.444  1.00  0.00     0.230 C 
ATOM      5  C   UNL     1      -2.317   1.032 -27.973  1.00  0.00     0.049 C 
ENDBRANCH   3   4
ENDBRANCH   1   3
BRANCH   1   6
ATOM      6  C   UNL     1      -5.208  -0.042 -31.005  1.00  0.00     0.094 C 
ATOM      7  C   UNL     1      -6.013   0.850 -31.602  1.00  0.00     0.016 C 
BRANCH   7   8
ATOM      8  C   UNL     1      -7.402   0.572 -31.990  1.00  0.00    -0.021 A 
ATOM      9  C   UNL     1      -8.210   1.644 -32.404  1.00  0.00     0.058 A 
ATOM     10  C   UNL     1      -7.958  -0.717 -31.922  1.00  0.00     0.012 A 
ATOM     11  C   UNL     1      -9.532   1.410 -32.768  1.00  0.00     0.157 A 
ATOM     12  C   UNL     1      -9.288  -0.943 -32.290  1.00  0.00     0.051 A 
ATOM     13  C   UNL     1     -10.063   0.125 -32.714  1.00  0.00     0.157 A 
BRANCH  11  14
ATOM     14  O   UNL     1     -10.355   2.419 -33.191  1.00  0.00    -0.504 OA
ATOM     15  H   UNL     1     -11.272   2.095 -33.160  1.00  0.00     0.293 HD
ENDBRANCH  11  14
BRANCH  13  16
ATOM     16  O   UNL     1     -11.360  -0.094 -33.076  1.00  0.00    -0.504 OA
ATOM     17  H   UNL     1     -11.322  -0.877 -33.661  1.00  0.00     0.293 HD
ENDBRANCH  13  16
ENDBRANCH   7   8
ENDBRANCH   1   6
TORSDOF 6
ENDMDL
MODEL 7
REMARK VINA RESULT:      -6.2      1.913      6.754
REMARK SMILES CCOC(=O)/C=C/c1ccc(O)c(O)c1
REMARK SMILES IDX 4 1 5 2 3 3 2 4 1 5 6 6 7 7 8 8 15 9 9 10 13 11 10 12 11 13
REMARK SMILES IDX 14 14 12 16
REMARK H PARENT 14 15 12 17
ROOT
ATOM      1  C   UNL     1       6.348  -2.527 -19.342  1.00  0.00     0.330 C 
ATOM      2  O   UNL     1       6.342  -3.735 -19.174  1.00  0.00    -0.247 OA
ENDROOT
BRANCH   1   3
ATOM      3  O   UNL     1       6.637  -1.577 -18.420  1.00  0.00    -0.463 OA
BRANCH   3   4
ATOM      4  C   UNL     1       7.723  -0.699 -18.754  1.00  0.00     0.230 C 
ATOM      5  C   UNL     1       8.832  -0.836 -17.727  1.00  0.00     0.049 C 
ENDBRANCH   3   4
ENDBRANCH   1   3
BRANCH   1   6
ATOM      6  C   UNL     1       6.011  -1.841 -20.606  1.00  0.00     0.094 C 
ATOM      7  C   UNL     1       5.489  -2.538 -21.626  1.00  0.00     0.016 C 
BRANCH   7   8
ATOM      8  C   UNL     1       5.073  -1.941 -22.903  1.00  0.00    -0.021 A 
ATOM      9  C   UNL     1       3.714  -1.990 -23.255  1.00  0.00     0.058 A 
ATOM     10  C   UNL     1       5.991  -1.362 -23.795  1.00  0.00     0.012 A 
ATOM     11  C   UNL     1       3.295  -1.440 -24.462  1.00  0.00     0.157 A 
ATOM     12  C   UNL     1       5.561  -0.812 -25.006  1.00  0.00     0.051 A 
ATOM     13  C   UNL     1       4.213  -0.853 -25.327  1.00  0.00     0.157 A 
BRANCH  11  14
ATOM     14  O   UNL     1       1.981  -1.451 -24.844  1.00  0.00    -0.504 OA
ATOM     15  H   UNL     1       1.936  -1.207 -25.784  1.00  0.00     0.293 HD
ENDBRANCH  11  14
BRANCH  13  16
ATOM     16  O   UNL     1       3.791  -0.314 -26.507  1.00  0.00    -0.504 OA
ATOM     17  H   UNL     1       3.806  -1.062 -27.137  1.00  0.00     0.293 HD
ENDBRANCH  13  16
ENDBRANCH   7   8
ENDBRANCH   1   6
TORSDOF 6
ENDMDL
MODEL 8
REMARK VINA RESULT:      -6.1     14.065     18.395
REMARK SMILES CCOC(=O)/C=C/c1ccc(O)c(O)c1
REMARK SMILES IDX 4 1 5 2 3 3 2 4 1 5 6 6 7 7 8 8 15 9 9 10 13 11 10 12 11 13
REMARK SMILES IDX 14 14 12 16
REMARK H PARENT 14 15 12 17
ROOT
ATOM      1  C   UNL     1      -4.808  -1.618 -30.002  1.00  0.00     0.330 C 
ATOM      2  O   UNL     1      -3.714  -1.908 -30.457  1.00  0.00    -0.247 OA
ENDROOT
BRANCH   1   3
ATOM      3  O   UNL     1      -5.371  -2.097 -28.867  1.00  0.00    -0.463 OA
BRANCH   3   4
ATOM      4  C   UNL     1      -4.500  -2.177 -27.729  1.00  0.00     0.230 C 
ATOM      5  C   UNL     1      -4.305  -0.797 -27.130  1.00  0.00     0.049 C 
ENDBRANCH   3   4
ENDBRANCH   1   3
BRANCH   1   6
ATOM      6  C   UNL     1      -5.768  -0.683 -30.623  1.00  0.00     0.094 C 
ATOM      7  C   UNL     1      -7.021  -1.088 -30.883  1.00  0.00     0.016 C 
BRANCH   7   8
ATOM      8  C   UNL     1      -8.063  -0.221 -31.450  1.00  0.00    -0.021 A 
ATOM      9  C   UNL     1      -8.932  -0.759 -32.414  1.00  0.00     0.058 A 
ATOM     10  C   UNL     1      -8.192   1.131 -31.090  1.00  0.00     0.012 A 
ATOM     11  C   UNL     1      -9.921   0.042 -32.973  1.00  0.00     0.157 A 
ATOM     12  C   UNL     1      -9.190   1.929 -31.658  1.00  0.00     0.051 A 
ATOM     13  C   UNL     1     -10.049   1.375 -32.593  1.00  0.00     0.157 A 
BRANCH  11  14
ATOM     14  O   UNL     1     -10.800  -0.438 -33.907  1.00  0.00    -0.504 OA
ATOM     15  H   UNL     1     -10.323  -0.540 -34.748  1.00  0.00     0.293 HD
ENDBRANCH  11  14
BRANCH  13  16
ATOM     16  O   UNL     1     -11.025   2.152 -33.146  1.00  0.00    -0.504 OA
ATOM     17  H   UNL     1     -10.540   2.862 -33.610  1.00  0.00     0.293 HD
ENDBRANCH  13  16
ENDBRANCH   7   8
ENDBRANCH   1   6
TORSDOF 6
ENDMDL
MODEL 9
REMARK VINA RESULT:      -6.1     13.856     18.229
REMARK SMILES CCOC(=O)/C=C/c1ccc(O)c(O)c1
REMARK SMILES IDX 4 1 5 2 3 3 2 4 1 5 6 6 7 7 8 8 15 9 9 10 13 11 10 12 11 13
REMARK SMILES IDX 14 14 12 16
REMARK H PARENT 14 15 12 17
ROOT
ATOM      1  C   UNL     1      -4.511   1.541 -29.596  1.00  0.00     0.330 C 
ATOM      2  O   UNL     1      -4.227   2.572 -29.009  1.00  0.00    -0.247 OA
ENDROOT
BRANCH   1   3
ATOM      3  O   UNL     1      -3.658   0.558 -29.973  1.00  0.00    -0.463 OA
BRANCH   3   4
ATOM      4  C   UNL     1      -3.086  -0.209 -28.903  1.00  0.00     0.230 C 
ATOM      5  C   UNL     1      -3.465  -1.671 -29.055  1.00  0.00     0.049 C 
ENDBRANCH   3   4
ENDBRANCH   1   3
BRANCH   1   6
ATOM      6  C   UNL     1      -5.866   1.161 -30.044  1.00  0.00     0.094 C 
ATOM      7  C   UNL     1      -6.266   1.461 -31.289  1.00  0.00     0.016 C 
BRANCH   7   8
ATOM      8  C   UNL     1      -7.572   1.081 -31.846  1.00  0.00    -0.021 A 
ATOM      9  C   UNL     1      -8.642   0.868 -30.961  1.00  0.00     0.058 A 
ATOM     10  C   UNL     1      -7.773   0.887 -33.223  1.00  0.00     0.012 A 
ATOM     11  C   UNL     1      -9.886   0.498 -31.461  1.00  0.00     0.157 A 
ATOM     12  C   UNL     1      -9.028   0.515 -33.716  1.00  0.00     0.051 A 
ATOM     13  C   UNL     1     -10.075   0.328 -32.829  1.00  0.00     0.157 A 
BRANCH  11  14
ATOM     14  O   UNL     1     -10.962   0.291 -30.641  1.00  0.00    -0.504 OA
ATOM     15  H   UNL     1     -11.149  -0.664 -30.620  1.00  0.00     0.293 HD
ENDBRANCH  11  14
BRANCH  13  16
ATOM     16  O   UNL     1     -11.300  -0.032 -33.309  1.00  0.00    -0.504 OA
ATOM     17  H   UNL     1     -11.470  -0.910 -32.915  1.00  0.00     0.293 HD
ENDBRANCH  13  16
ENDBRANCH   7   8
ENDBRANCH   1   6
TORSDOF 6
ENDMDL
MODEL 10
REMARK VINA RESULT:      -6.1     12.686     14.485
REMARK SMILES CCOC(=O)/C=C/c1ccc(O)c(O)c1
REMARK SMILES IDX 4 1 5 2 3 3 2 4 1 5 6 6 7 7 8 8 15 9 9 10 13 11 10 12 11 13
REMARK SMILES IDX 14 14 12 16
REMARK H PARENT 14 15 12 17
ROOT
ATOM      1  C   UNL     1      -5.715  -0.798 -24.517  1.00  0.00     0.330 C 
ATOM      2  O   UNL     1      -5.341   0.156 -23.856  1.00  0.00    -0.247 OA
ENDROOT
BRANCH   1   3
ATOM      3  O   UNL     1      -6.453  -1.849 -24.086  1.00  0.00    -0.463 OA
BRANCH   3   4
ATOM      4  C   UNL     1      -7.579  -1.518 -23.258  1.00  0.00     0.230 C 
ATOM      5  C   UNL     1      -7.677  -2.497 -22.103  1.00  0.00     0.049 C 
ENDBRANCH   3   4
ENDBRANCH   1   3
BRANCH   1   6
ATOM      6  C   UNL     1      -5.414  -1.015 -25.947  1.00  0.00     0.094 C 
ATOM      7  C   UNL     1      -4.473  -0.273 -26.551  1.00  0.00     0.016 C 
BRANCH   7   8
ATOM      8  C   UNL     1      -4.064  -0.446 -27.951  1.00  0.00    -0.021 A 
ATOM      9  C   UNL     1      -4.111   0.667 -28.806  1.00  0.00     0.058 A 
ATOM     10  C   UNL     1      -3.668  -1.691 -28.469  1.00  0.00     0.012 A 
ATOM     11  C   UNL     1      -3.738   0.529 -30.139  1.00  0.00     0.157 A 
ATOM     12  C   UNL     1      -3.295  -1.821 -29.811  1.00  0.00     0.051 A 
ATOM     13  C   UNL     1      -3.330  -0.706 -30.633  1.00  0.00     0.157 A 
BRANCH  11  14
ATOM     14  O   UNL     1      -3.754   1.586 -31.008  1.00  0.00    -0.504 OA
ATOM     15  H   UNL     1      -4.580   2.082 -30.868  1.00  0.00     0.293 HD
ENDBRANCH  11  14
BRANCH  13  16
ATOM     16  O   UNL     1      -2.963  -0.831 -31.942  1.00  0.00    -0.504 OA
ATOM     17  H   UNL     1      -3.246  -1.733 -32.191  1.00  0.00     0.293 HD
ENDBRANCH  13  16
ENDBRANCH   7   8
ENDBRANCH   1   6
TORSDOF 6
ENDMDL
