MODEL 1
REMARK VINA RESULT:      -6.1      0.000      0.000
REMARK SMILES COc1ccc(C(=O)O)cc1
REMARK SMILES IDX 3 1 4 2 5 3 6 4 10 5 11 6 2 7 1 8 7 9 8 10 9 11
REMARK H PARENT 9 12
ROOT
ATOM      1  C   UNL     1       0.153 -11.640 -26.300  1.00  0.00     0.118 A 
ATOM      2  C   UNL     1       0.021 -10.379 -25.712  1.00  0.00     0.047 A 
ATOM      3  C   UNL     1      -0.967  -9.494 -26.158  1.00  0.00     0.019 A 
ATOM      4  C   UNL     1      -1.832  -9.874 -27.191  1.00  0.00     0.060 A 
ATOM      5  C   UNL     1      -1.691 -11.124 -27.795  1.00  0.00     0.019 A 
ATOM      6  C   UNL     1      -0.706 -12.004 -27.343  1.00  0.00     0.047 A 
ENDROOT
BRANCH   1   7
ATOM      7  O   UNL     1       1.070 -12.594 -25.959  1.00  0.00    -0.497 OA
ATOM      8  C   UNL     1       0.908 -13.226 -24.695  1.00  0.00     0.278 C 
ENDBRANCH   1   7
BRANCH   4   9
ATOM      9  C   UNL     1      -2.884  -8.961 -27.688  1.00  0.00     0.335 C 
ATOM     10  O   UNL     1      -3.120  -8.793 -28.871  1.00  0.00    -0.246 OA
BRANCH   9  11
ATOM     11  O   UNL     1      -3.584  -8.377 -26.693  1.00  0.00    -0.478 OA
ATOM     12  H   UNL     1      -4.181  -8.981 -26.211  1.00  0.00     0.297 HD
ENDBRANCH   9  11
ENDBRANCH   4   9
TORSDOF 3
ENDMDL
MODEL 2
REMARK VINA RESULT:      -6.1      0.902      4.570
REMARK SMILES COc1ccc(C(=O)O)cc1
REMARK SMILES IDX 3 1 4 2 5 3 6 4 10 5 11 6 2 7 1 8 7 9 8 10 9 11
REMARK H PARENT 9 12
ROOT
ATOM      1  C   UNL     1      -1.709  -9.565 -27.528  1.00  0.00     0.118 A 
ATOM      2  C   UNL     1      -0.846  -9.091 -26.537  1.00  0.00     0.047 A 
ATOM      3  C   UNL     1       0.040  -9.966 -25.898  1.00  0.00     0.019 A 
ATOM      4  C   UNL     1       0.069 -11.319 -26.259  1.00  0.00     0.060 A 
ATOM      5  C   UNL     1      -0.806 -11.800 -27.234  1.00  0.00     0.019 A 
ATOM      6  C   UNL     1      -1.685 -10.921 -27.869  1.00  0.00     0.047 A 
ENDROOT
BRANCH   1   7
ATOM      7  O   UNL     1      -2.617  -8.818 -28.227  1.00  0.00    -0.497 OA
ATOM      8  C   UNL     1      -3.983  -9.200 -28.127  1.00  0.00     0.278 C 
ENDBRANCH   1   7
BRANCH   4   9
ATOM      9  C   UNL     1       0.990 -12.271 -25.602  1.00  0.00     0.335 C 
ATOM     10  O   UNL     1       1.354 -13.313 -26.116  1.00  0.00    -0.246 OA
BRANCH   9  11
ATOM     11  O   UNL     1       1.421 -11.838 -24.398  1.00  0.00    -0.478 OA
ATOM     12  H   UNL     1       1.160 -10.922 -24.182  1.00  0.00     0.297 HD
ENDBRANCH   9  11
ENDBRANCH   4   9
TORSDOF 3
ENDMDL
MODEL 3
REMARK VINA RESULT:      -5.9     14.759     15.890
REMARK SMILES COc1ccc(C(=O)O)cc1
REMARK SMILES IDX 3 1 4 2 5 3 6 4 10 5 11 6 2 7 1 8 7 9 8 10 9 11
REMARK H PARENT 9 12
ROOT
ATOM      1  C   UNL     1       7.886  -0.026 -16.640  1.00  0.00     0.118 A 
ATOM      2  C   UNL     1       6.778  -0.864 -16.494  1.00  0.00     0.047 A 
ATOM      3  C   UNL     1       6.293  -1.588 -17.589  1.00  0.00     0.019 A 
ATOM      4  C   UNL     1       6.926  -1.481 -18.834  1.00  0.00     0.060 A 
ATOM      5  C   UNL     1       8.021  -0.630 -18.989  1.00  0.00     0.019 A 
ATOM      6  C   UNL     1       8.500   0.087 -17.891  1.00  0.00     0.047 A 
ENDROOT
BRANCH   1   7
ATOM      7  O   UNL     1       8.457   0.731 -15.655  1.00  0.00    -0.497 OA
ATOM      8  C   UNL     1       9.847   1.006 -15.772  1.00  0.00     0.278 C 
ENDBRANCH   1   7
BRANCH   4   9
ATOM      9  C   UNL     1       6.437  -2.230 -20.012  1.00  0.00     0.335 C 
ATOM     10  O   UNL     1       5.890  -1.700 -20.962  1.00  0.00    -0.246 OA
BRANCH   9  11
ATOM     11  O   UNL     1       6.708  -3.550 -19.943  1.00  0.00    -0.478 OA
ATOM     12  H   UNL     1       7.007  -3.946 -20.784  1.00  0.00     0.297 HD
ENDBRANCH   9  11
ENDBRANCH   4   9
TORSDOF 3
ENDMDL
MODEL 4
REMARK VINA RESULT:      -5.8     14.837     15.989
REMARK SMILES COc1ccc(C(=O)O)cc1
REMARK SMILES IDX 3 1 4 2 5 3 6 4 10 5 11 6 2 7 1 8 7 9 8 10 9 11
REMARK H PARENT 9 12
ROOT
ATOM      1  C   UNL     1       6.519  -2.215 -18.677  1.00  0.00     0.118 A 
ATOM      2  C   UNL     1       6.133  -1.960 -17.358  1.00  0.00     0.047 A 
ATOM      3  C   UNL     1       6.684  -0.880 -16.660  1.00  0.00     0.019 A 
ATOM      4  C   UNL     1       7.618  -0.045 -17.287  1.00  0.00     0.060 A 
ATOM      5  C   UNL     1       8.021  -0.308 -18.597  1.00  0.00     0.019 A 
ATOM      6  C   UNL     1       7.465  -1.386 -19.288  1.00  0.00     0.047 A 
ENDROOT
BRANCH   1   7
ATOM      7  O   UNL     1       6.058  -3.232 -19.466  1.00  0.00    -0.497 OA
ATOM      8  C   UNL     1       6.025  -2.999 -20.869  1.00  0.00     0.278 C 
ENDBRANCH   1   7
BRANCH   4   9
ATOM      9  C   UNL     1       8.222   1.103 -16.576  1.00  0.00     0.335 C 
ATOM     10  O   UNL     1       9.358   1.096 -16.138  1.00  0.00    -0.246 OA
BRANCH   9  11
ATOM     11  O   UNL     1       7.399   2.171 -16.512  1.00  0.00    -0.478 OA
ATOM     12  H   UNL     1       6.658   2.148 -17.147  1.00  0.00     0.297 HD
ENDBRANCH   9  11
ENDBRANCH   4   9
TORSDOF 3
ENDMDL
MODEL 5
REMARK VINA RESULT:      -5.7     12.501     14.211
REMARK SMILES COc1ccc(C(=O)O)cc1
REMARK SMILES IDX 3 1 4 2 5 3 6 4 10 5 11 6 2 7 1 8 7 9 8 10 9 11
REMARK H PARENT 9 12
ROOT
ATOM      1  C   UNL     1      -6.533   0.011 -31.658  1.00  0.00     0.118 A 
ATOM      2  C   UNL     1      -6.847   1.192 -32.336  1.00  0.00     0.047 A 
ATOM      3  C   UNL     1      -8.158   1.433 -32.760  1.00  0.00     0.019 A 
ATOM      4  C   UNL     1      -9.163   0.493 -32.497  1.00  0.00     0.060 A 
ATOM      5  C   UNL     1      -8.850  -0.697 -31.839  1.00  0.00     0.019 A 
ATOM      6  C   UNL     1      -7.540  -0.929 -31.416  1.00  0.00     0.047 A 
ENDROOT
BRANCH   1   7
ATOM      7  O   UNL     1      -5.298  -0.344 -31.192  1.00  0.00    -0.497 OA
ATOM      8  C   UNL     1      -4.201   0.478 -31.570  1.00  0.00     0.278 C 
ENDBRANCH   1   7
BRANCH   4   9
ATOM      9  C   UNL     1     -10.558   0.716 -32.935  1.00  0.00     0.335 C 
ATOM     10  O   UNL     1     -11.355  -0.187 -33.113  1.00  0.00    -0.246 OA
BRANCH   9  11
ATOM     11  O   UNL     1     -10.864   2.024 -33.064  1.00  0.00    -0.478 OA
ATOM     12  H   UNL     1     -11.419   2.382 -32.345  1.00  0.00     0.297 HD
ENDBRANCH   9  11
ENDBRANCH   4   9
TORSDOF 3
ENDMDL
MODEL 6
REMARK VINA RESULT:      -5.6     11.782     14.205
REMARK SMILES COc1ccc(C(=O)O)cc1
REMARK SMILES IDX 3 1 4 2 5 3 6 4 10 5 11 6 2 7 1 8 7 9 8 10 9 11
REMARK H PARENT 9 12
ROOT
ATOM      1  C   UNL     1      -6.472   0.186 -31.764  1.00  0.00     0.118 A 
ATOM      2  C   UNL     1      -7.422  -0.783 -31.433  1.00  0.00     0.047 A 
ATOM      3  C   UNL     1      -8.754  -0.629 -31.836  1.00  0.00     0.019 A 
ATOM      4  C   UNL     1      -9.134   0.495 -32.580  1.00  0.00     0.060 A 
ATOM      5  C   UNL     1      -8.192   1.475 -32.894  1.00  0.00     0.019 A 
ATOM      6  C   UNL     1      -6.865   1.314 -32.492  1.00  0.00     0.047 A 
ENDROOT
BRANCH   1   7
ATOM      7  O   UNL     1      -5.145   0.156 -31.434  1.00  0.00    -0.497 OA
ATOM      8  C   UNL     1      -4.786  -0.557 -30.257  1.00  0.00     0.278 C 
ENDBRANCH   1   7
BRANCH   4   9
ATOM      9  C   UNL     1     -10.533   0.690 -33.018  1.00  0.00     0.335 C 
ATOM     10  O   UNL     1     -11.279  -0.230 -33.303  1.00  0.00    -0.246 OA
BRANCH   9  11
ATOM     11  O   UNL     1     -10.906   1.987 -33.020  1.00  0.00    -0.478 OA
ATOM     12  H   UNL     1     -10.965   2.389 -33.908  1.00  0.00     0.297 HD
ENDBRANCH   9  11
ENDBRANCH   4   9
TORSDOF 3
ENDMDL
MODEL 7
REMARK VINA RESULT:      -5.4      9.960     11.047
REMARK SMILES COc1ccc(C(=O)O)cc1
REMARK SMILES IDX 3 1 4 2 5 3 6 4 10 5 11 6 2 7 1 8 7 9 8 10 9 11
REMARK H PARENT 9 12
ROOT
ATOM      1  C   UNL     1      -5.327  -1.355 -26.101  1.00  0.00     0.118 A 
ATOM      2  C   UNL     1      -5.000  -2.039 -27.275  1.00  0.00     0.047 A 
ATOM      3  C   UNL     1      -4.015  -1.534 -28.132  1.00  0.00     0.019 A 
ATOM      4  C   UNL     1      -3.349  -0.346 -27.809  1.00  0.00     0.060 A 
ATOM      5  C   UNL     1      -3.687   0.351 -26.648  1.00  0.00     0.019 A 
ATOM      6  C   UNL     1      -4.668  -0.160 -25.796  1.00  0.00     0.047 A 
ENDROOT
BRANCH   1   7
ATOM      7  O   UNL     1      -6.263  -1.739 -25.182  1.00  0.00    -0.497 OA
ATOM      8  C   UNL     1      -6.650  -0.776 -24.210  1.00  0.00     0.278 C 
ENDBRANCH   1   7
BRANCH   4   9
ATOM      9  C   UNL     1      -2.306   0.216 -28.695  1.00  0.00     0.335 C 
ATOM     10  O   UNL     1      -2.315   0.086 -29.905  1.00  0.00    -0.246 OA
BRANCH   9  11
ATOM     11  O   UNL     1      -1.376   0.928 -28.023  1.00  0.00    -0.478 OA
ATOM     12  H   UNL     1      -0.562   1.108 -28.530  1.00  0.00     0.297 HD
ENDBRANCH   9  11
ENDBRANCH   4   9
TORSDOF 3
ENDMDL
MODEL 8
REMARK VINA RESULT:      -5.3      2.338      4.426
REMARK SMILES COc1ccc(C(=O)O)cc1
REMARK SMILES IDX 3 1 4 2 5 3 6 4 10 5 11 6 2 7 1 8 7 9 8 10 9 11
REMARK H PARENT 9 12
ROOT
ATOM      1  C   UNL     1      -4.202  -9.591 -27.170  1.00  0.00     0.118 A 
ATOM      2  C   UNL     1      -3.530  -8.377 -27.009  1.00  0.00     0.047 A 
ATOM      3  C   UNL     1      -2.133  -8.331 -27.077  1.00  0.00     0.019 A 
ATOM      4  C   UNL     1      -1.406  -9.504 -27.317  1.00  0.00     0.060 A 
ATOM      5  C   UNL     1      -2.072 -10.722 -27.458  1.00  0.00     0.019 A 
ATOM      6  C   UNL     1      -3.466 -10.760 -27.392  1.00  0.00     0.047 A 
ENDROOT
BRANCH   1   7
ATOM      7  O   UNL     1      -5.557  -9.772 -27.127  1.00  0.00    -0.497 OA
ATOM      8  C   UNL     1      -6.031 -10.984 -26.556  1.00  0.00     0.278 C 
ENDBRANCH   1   7
BRANCH   4   9
ATOM      9  C   UNL     1       0.072  -9.491 -27.392  1.00  0.00     0.335 C 
ATOM     10  O   UNL     1       0.733  -8.469 -27.391  1.00  0.00    -0.246 OA
BRANCH   9  11
ATOM     11  O   UNL     1       0.606 -10.730 -27.410  1.00  0.00    -0.478 OA
ATOM     12  H   UNL     1       1.243 -10.885 -28.134  1.00  0.00     0.297 HD
ENDBRANCH   9  11
ENDBRANCH   4   9
TORSDOF 3
ENDMDL
MODEL 9
REMARK VINA RESULT:      -5.2      2.614      3.463
REMARK SMILES COc1ccc(C(=O)O)cc1
REMARK SMILES IDX 3 1 4 2 5 3 6 4 10 5 11 6 2 7 1 8 7 9 8 10 9 11
REMARK H PARENT 9 12
ROOT
ATOM      1  C   UNL     1      -1.632  -9.036 -27.347  1.00  0.00     0.118 A 
ATOM      2  C   UNL     1      -2.727  -8.174 -27.250  1.00  0.00     0.047 A 
ATOM      3  C   UNL     1      -4.020  -8.690 -27.105  1.00  0.00     0.019 A 
ATOM      4  C   UNL     1      -4.217 -10.075 -27.049  1.00  0.00     0.060 A 
ATOM      5  C   UNL     1      -3.129 -10.941 -27.166  1.00  0.00     0.019 A 
ATOM      6  C   UNL     1      -1.842 -10.419 -27.307  1.00  0.00     0.047 A 
ENDROOT
BRANCH   1   7
ATOM      7  O   UNL     1      -0.325  -8.663 -27.489  1.00  0.00    -0.497 OA
ATOM      8  C   UNL     1       0.662  -9.549 -26.976  1.00  0.00     0.278 C 
ENDBRANCH   1   7
BRANCH   4   9
ATOM      9  C   UNL     1      -5.571 -10.653 -26.899  1.00  0.00     0.335 C 
ATOM     10  O   UNL     1      -5.801 -11.658 -26.251  1.00  0.00    -0.246 OA
BRANCH   9  11
ATOM     11  O   UNL     1      -6.524  -9.922 -27.515  1.00  0.00    -0.478 OA
ATOM     12  H   UNL     1      -7.413 -10.005 -27.121  1.00  0.00     0.297 HD
ENDBRANCH   9  11
ENDBRANCH   4   9
TORSDOF 3
ENDMDL
MODEL 10
REMARK VINA RESULT:      -5.2     11.474     13.954
REMARK SMILES COc1ccc(C(=O)O)cc1
REMARK SMILES IDX 3 1 4 2 5 3 6 4 10 5 11 6 2 7 1 8 7 9 8 10 9 11
REMARK H PARENT 9 12
ROOT
ATOM      1  C   UNL     1      -6.577  -0.161 -31.521  1.00  0.00     0.118 A 
ATOM      2  C   UNL     1      -6.787   1.025 -32.230  1.00  0.00     0.047 A 
ATOM      3  C   UNL     1      -8.074   1.369 -32.660  1.00  0.00     0.019 A 
ATOM      4  C   UNL     1      -9.156   0.528 -32.372  1.00  0.00     0.060 A 
ATOM      5  C   UNL     1      -8.947  -0.667 -31.682  1.00  0.00     0.019 A 
ATOM      6  C   UNL     1      -7.661  -1.002 -31.253  1.00  0.00     0.047 A 
ENDROOT
BRANCH   1   7
ATOM      7  O   UNL     1      -5.376  -0.610 -31.045  1.00  0.00    -0.497 OA
ATOM      8  C   UNL     1      -5.410  -1.483 -29.923  1.00  0.00     0.278 C 
ENDBRANCH   1   7
BRANCH   4   9
ATOM      9  C   UNL     1     -10.527   0.860 -32.815  1.00  0.00     0.335 C 
ATOM     10  O   UNL     1     -10.908   1.999 -33.016  1.00  0.00    -0.246 OA
BRANCH   9  11
ATOM     11  O   UNL     1     -11.292  -0.233 -33.018  1.00  0.00    -0.478 OA
ATOM     12  H   UNL     1     -10.799  -1.020 -33.321  1.00  0.00     0.297 HD
ENDBRANCH   9  11
ENDBRANCH   4   9
TORSDOF 3
ENDMDL
