MODEL 1
REMARK VINA RESULT:      -6.8      0.000      0.000
REMARK SMILES Oc1ccc(-c2ccc(O)c(O)c2)cc1
REMARK SMILES IDX 4 1 3 2 2 3 15 4 14 5 5 6 6 7 13 8 7 9 11 10 8 11 9 12 12 13
REMARK SMILES IDX 10 15 1 17
REMARK H PARENT 12 14 10 16 1 18
ROOT
ATOM      1  C   UNL     1      -7.436   0.571 -32.745  1.00  0.00     0.012 A 
ATOM      2  C   UNL     1      -8.604   0.661 -33.511  1.00  0.00     0.047 A 
ATOM      3  C   UNL     1      -9.684  -0.157 -33.206  1.00  0.00     0.115 A 
ATOM      4  C   UNL     1      -9.616  -1.058 -32.153  1.00  0.00     0.047 A 
ATOM      5  C   UNL     1      -8.449  -1.146 -31.389  1.00  0.00     0.012 A 
ATOM      6  C   UNL     1      -7.338  -0.333 -31.673  1.00  0.00    -0.018 A 
ENDROOT
BRANCH   6   7
ATOM      7  C   UNL     1      -6.106  -0.426 -30.872  1.00  0.00    -0.014 A 
ATOM      8  C   UNL     1      -5.182   0.635 -30.843  1.00  0.00     0.059 A 
ATOM      9  C   UNL     1      -5.824  -1.580 -30.114  1.00  0.00     0.013 A 
ATOM     10  C   UNL     1      -4.024   0.532 -30.078  1.00  0.00     0.158 A 
ATOM     11  C   UNL     1      -4.659  -1.677 -29.348  1.00  0.00     0.051 A 
ATOM     12  C   UNL     1      -3.768  -0.617 -29.338  1.00  0.00     0.157 A 
BRANCH  10  13
ATOM     13  O   UNL     1      -3.103   1.544 -30.021  1.00  0.00    -0.504 OA
ATOM     14  H   UNL     1      -3.152   2.045 -30.853  1.00  0.00     0.293 HD
ENDBRANCH  10  13
BRANCH  12  15
ATOM     15  O   UNL     1      -2.629  -0.708 -28.591  1.00  0.00    -0.504 OA
ATOM     16  H   UNL     1      -2.666  -1.602 -28.198  1.00  0.00     0.293 HD
ENDBRANCH  12  15
ENDBRANCH   6   7
BRANCH   3  17
ATOM     17  O   UNL     1     -10.842  -0.105 -33.924  1.00  0.00    -0.508 OA
ATOM     18  H   UNL     1     -10.769  -0.719 -34.674  1.00  0.00     0.293 HD
ENDBRANCH   3  17
TORSDOF 4
ENDMDL
MODEL 2
REMARK VINA RESULT:      -6.7      1.603      6.273
REMARK SMILES Oc1ccc(-c2ccc(O)c(O)c2)cc1
REMARK SMILES IDX 4 1 3 2 2 3 15 4 14 5 5 6 6 7 13 8 7 9 11 10 8 11 9 12 12 13
REMARK SMILES IDX 10 15 1 17
REMARK H PARENT 12 14 10 16 1 18
ROOT
ATOM      1  C   UNL     1      -3.896  -0.585 -29.873  1.00  0.00     0.012 A 
ATOM      2  C   UNL     1      -2.783  -0.452 -29.035  1.00  0.00     0.047 A 
ATOM      3  C   UNL     1      -2.469   0.796 -28.511  1.00  0.00     0.115 A 
ATOM      4  C   UNL     1      -3.246   1.907 -28.810  1.00  0.00     0.047 A 
ATOM      5  C   UNL     1      -4.357   1.770 -29.647  1.00  0.00     0.012 A 
ATOM      6  C   UNL     1      -4.701   0.522 -30.194  1.00  0.00    -0.018 A 
ENDROOT
BRANCH   6   7
ATOM      7  C   UNL     1      -5.868   0.378 -31.079  1.00  0.00    -0.014 A 
ATOM      8  C   UNL     1      -6.699  -0.755 -30.998  1.00  0.00     0.059 A 
ATOM      9  C   UNL     1      -6.183   1.373 -32.027  1.00  0.00     0.013 A 
ATOM     10  C   UNL     1      -7.801  -0.874 -31.840  1.00  0.00     0.158 A 
ATOM     11  C   UNL     1      -7.291   1.246 -32.869  1.00  0.00     0.051 A 
ATOM     12  C   UNL     1      -8.091   0.121 -32.767  1.00  0.00     0.157 A 
BRANCH  10  13
ATOM     13  O   UNL     1      -8.635  -1.959 -31.789  1.00  0.00    -0.504 OA
ATOM     14  H   UNL     1      -8.478  -2.422 -30.948  1.00  0.00     0.293 HD
ENDBRANCH  10  13
BRANCH  12  15
ATOM     15  O   UNL     1      -9.174  -0.006 -33.588  1.00  0.00    -0.504 OA
ATOM     16  H   UNL     1      -8.792  -0.144 -34.476  1.00  0.00     0.293 HD
ENDBRANCH  12  15
ENDBRANCH   6   7
BRANCH   3  17
ATOM     17  O   UNL     1      -1.395   0.974 -27.691  1.00  0.00    -0.508 OA
ATOM     18  H   UNL     1      -0.753   1.548 -28.140  1.00  0.00     0.293 HD
ENDBRANCH   3  17
TORSDOF 4
ENDMDL
MODEL 3
REMARK VINA RESULT:      -6.7      1.489      2.332
REMARK SMILES Oc1ccc(-c2ccc(O)c(O)c2)cc1
REMARK SMILES IDX 4 1 3 2 2 3 15 4 14 5 5 6 6 7 13 8 7 9 11 10 8 11 9 12 12 13
REMARK SMILES IDX 10 15 1 17
REMARK H PARENT 12 14 10 16 1 18
ROOT
ATOM      1  C   UNL     1      -6.784  -0.629 -30.964  1.00  0.00     0.012 A 
ATOM      2  C   UNL     1      -7.884  -0.779 -31.815  1.00  0.00     0.047 A 
ATOM      3  C   UNL     1      -8.081   0.135 -32.843  1.00  0.00     0.115 A 
ATOM      4  C   UNL     1      -7.200   1.190 -33.032  1.00  0.00     0.047 A 
ATOM      5  C   UNL     1      -6.102   1.337 -32.180  1.00  0.00     0.012 A 
ATOM      6  C   UNL     1      -5.876   0.431 -31.130  1.00  0.00    -0.018 A 
ENDROOT
BRANCH   6   7
ATOM      7  C   UNL     1      -4.722   0.587 -30.229  1.00  0.00    -0.014 A 
ATOM      8  C   UNL     1      -4.515   1.788 -29.524  1.00  0.00     0.059 A 
ATOM      9  C   UNL     1      -3.799  -0.463 -30.050  1.00  0.00     0.013 A 
ATOM     10  C   UNL     1      -3.421   1.918 -28.674  1.00  0.00     0.158 A 
ATOM     11  C   UNL     1      -2.702  -0.324 -29.195  1.00  0.00     0.051 A 
ATOM     12  C   UNL     1      -2.523   0.868 -28.514  1.00  0.00     0.157 A 
BRANCH  10  13
ATOM     13  O   UNL     1      -3.187   3.067 -27.967  1.00  0.00    -0.504 OA
ATOM     14  H   UNL     1      -3.857   3.723 -28.227  1.00  0.00     0.293 HD
ENDBRANCH  10  13
BRANCH  12  15
ATOM     15  O   UNL     1      -1.453   1.006 -27.677  1.00  0.00    -0.504 OA
ATOM     16  H   UNL     1      -0.707   1.223 -28.269  1.00  0.00     0.293 HD
ENDBRANCH  12  15
ENDBRANCH   6   7
BRANCH   3  17
ATOM     17  O   UNL     1      -9.138   0.029 -33.697  1.00  0.00    -0.508 OA
ATOM     18  H   UNL     1      -8.863  -0.495 -34.468  1.00  0.00     0.293 HD
ENDBRANCH   3  17
TORSDOF 4
ENDMDL
MODEL 4
REMARK VINA RESULT:      -6.7      1.603      6.126
REMARK SMILES Oc1ccc(-c2ccc(O)c(O)c2)cc1
REMARK SMILES IDX 4 1 3 2 2 3 15 4 14 5 5 6 6 7 13 8 7 9 11 10 8 11 9 12 12 13
REMARK SMILES IDX 10 15 1 17
REMARK H PARENT 12 14 10 16 1 18
ROOT
ATOM      1  C   UNL     1      -5.649   0.310 -30.883  1.00  0.00     0.012 A 
ATOM      2  C   UNL     1      -4.418   0.731 -30.370  1.00  0.00     0.047 A 
ATOM      3  C   UNL     1      -4.307   2.002 -29.820  1.00  0.00     0.115 A 
ATOM      4  C   UNL     1      -5.402   2.853 -29.774  1.00  0.00     0.047 A 
ATOM      5  C   UNL     1      -6.631   2.429 -30.287  1.00  0.00     0.012 A 
ATOM      6  C   UNL     1      -6.776   1.150 -30.852  1.00  0.00    -0.018 A 
ENDROOT
BRANCH   6   7
ATOM      7  C   UNL     1      -8.069   0.704 -31.397  1.00  0.00    -0.014 A 
ATOM      8  C   UNL     1      -8.961   1.623 -31.981  1.00  0.00     0.059 A 
ATOM      9  C   UNL     1      -8.443  -0.654 -31.347  1.00  0.00     0.013 A 
ATOM     10  C   UNL     1     -10.178   1.184 -32.494  1.00  0.00     0.158 A 
ATOM     11  C   UNL     1      -9.667  -1.087 -31.863  1.00  0.00     0.051 A 
ATOM     12  C   UNL     1     -10.525  -0.161 -32.433  1.00  0.00     0.157 A 
BRANCH  10  13
ATOM     13  O   UNL     1     -11.071   2.045 -33.074  1.00  0.00    -0.504 OA
ATOM     14  H   UNL     1     -10.597   2.563 -33.747  1.00  0.00     0.293 HD
ENDBRANCH  10  13
BRANCH  12  15
ATOM     15  O   UNL     1     -11.721  -0.581 -32.939  1.00  0.00    -0.504 OA
ATOM     16  H   UNL     1     -12.355   0.114 -32.676  1.00  0.00     0.293 HD
ENDBRANCH  12  15
ENDBRANCH   6   7
BRANCH   3  17
ATOM     17  O   UNL     1      -3.127   2.455 -29.308  1.00  0.00    -0.508 OA
ATOM     18  H   UNL     1      -3.320   3.040 -28.557  1.00  0.00     0.293 HD
ENDBRANCH   3  17
TORSDOF 4
ENDMDL
MODEL 5
REMARK VINA RESULT:      -6.7      1.714      2.341
REMARK SMILES Oc1ccc(-c2ccc(O)c(O)c2)cc1
REMARK SMILES IDX 4 1 3 2 2 3 15 4 14 5 5 6 6 7 13 8 7 9 11 10 8 11 9 12 12 13
REMARK SMILES IDX 10 15 1 17
REMARK H PARENT 12 14 10 16 1 18
ROOT
ATOM      1  C   UNL     1      -7.626   0.928 -33.130  1.00  0.00     0.012 A 
ATOM      2  C   UNL     1      -8.764   0.506 -33.826  1.00  0.00     0.047 A 
ATOM      3  C   UNL     1      -9.951   0.303 -33.135  1.00  0.00     0.115 A 
ATOM      4  C   UNL     1     -10.019   0.515 -31.765  1.00  0.00     0.047 A 
ATOM      5  C   UNL     1      -8.880   0.938 -31.072  1.00  0.00     0.012 A 
ATOM      6  C   UNL     1      -7.664   1.150 -31.743  1.00  0.00    -0.018 A 
ENDROOT
BRANCH   6   7
ATOM      7  C   UNL     1      -6.463   1.591 -31.014  1.00  0.00    -0.014 A 
ATOM      8  C   UNL     1      -5.243   0.902 -31.149  1.00  0.00     0.059 A 
ATOM      9  C   UNL     1      -6.507   2.715 -30.164  1.00  0.00     0.013 A 
ATOM     10  C   UNL     1      -4.117   1.334 -30.455  1.00  0.00     0.158 A 
ATOM     11  C   UNL     1      -5.372   3.143 -29.470  1.00  0.00     0.051 A 
ATOM     12  C   UNL     1      -4.185   2.446 -29.622  1.00  0.00     0.157 A 
BRANCH  10  13
ATOM     13  O   UNL     1      -2.912   0.693 -30.562  1.00  0.00    -0.504 OA
ATOM     14  H   UNL     1      -2.351   0.977 -29.820  1.00  0.00     0.293 HD
ENDBRANCH  10  13
BRANCH  12  15
ATOM     15  O   UNL     1      -3.074   2.861 -28.946  1.00  0.00    -0.504 OA
ATOM     16  H   UNL     1      -2.397   2.188 -29.152  1.00  0.00     0.293 HD
ENDBRANCH  12  15
ENDBRANCH   6   7
BRANCH   3  17
ATOM     17  O   UNL     1     -11.085  -0.108 -33.771  1.00  0.00    -0.508 OA
ATOM     18  H   UNL     1     -11.841   0.033 -33.178  1.00  0.00     0.293 HD
ENDBRANCH   3  17
TORSDOF 4
ENDMDL
MODEL 6
REMARK VINA RESULT:      -6.6      0.720      2.086
REMARK SMILES Oc1ccc(-c2ccc(O)c(O)c2)cc1
REMARK SMILES IDX 4 1 3 2 2 3 15 4 14 5 5 6 6 7 13 8 7 9 11 10 8 11 9 12 12 13
REMARK SMILES IDX 10 15 1 17
REMARK H PARENT 12 14 10 16 1 18
ROOT
ATOM      1  C   UNL     1      -8.257  -1.170 -31.488  1.00  0.00     0.012 A 
ATOM      2  C   UNL     1      -9.461  -1.111 -32.198  1.00  0.00     0.047 A 
ATOM      3  C   UNL     1      -9.620  -0.153 -33.191  1.00  0.00     0.115 A 
ATOM      4  C   UNL     1      -8.600   0.741 -33.485  1.00  0.00     0.047 A 
ATOM      5  C   UNL     1      -7.398   0.679 -32.773  1.00  0.00     0.012 A 
ATOM      6  C   UNL     1      -7.207  -0.277 -31.761  1.00  0.00    -0.018 A 
ENDROOT
BRANCH   6   7
ATOM      7  C   UNL     1      -5.943  -0.341 -31.008  1.00  0.00    -0.014 A 
ATOM      8  C   UNL     1      -5.790  -1.233 -29.930  1.00  0.00     0.059 A 
ATOM      9  C   UNL     1      -4.856   0.488 -31.351  1.00  0.00     0.013 A 
ATOM     10  C   UNL     1      -4.588  -1.282 -29.230  1.00  0.00     0.158 A 
ATOM     11  C   UNL     1      -3.652   0.433 -30.644  1.00  0.00     0.051 A 
ATOM     12  C   UNL     1      -3.530  -0.454 -29.588  1.00  0.00     0.157 A 
BRANCH  10  13
ATOM     13  O   UNL     1      -4.399  -2.138 -28.178  1.00  0.00    -0.504 OA
ATOM     14  H   UNL     1      -4.192  -1.607 -27.390  1.00  0.00     0.293 HD
ENDBRANCH  10  13
BRANCH  12  15
ATOM     15  O   UNL     1      -2.354  -0.512 -28.895  1.00  0.00    -0.504 OA
ATOM     16  H   UNL     1      -1.877   0.300 -29.157  1.00  0.00     0.293 HD
ENDBRANCH  12  15
ENDBRANCH   6   7
BRANCH   3  17
ATOM     17  O   UNL     1     -10.775  -0.057 -33.910  1.00  0.00    -0.508 OA
ATOM     18  H   UNL     1     -10.877  -0.864 -34.442  1.00  0.00     0.293 HD
ENDBRANCH   3  17
TORSDOF 4
ENDMDL
MODEL 7
REMARK VINA RESULT:      -6.5      4.317      6.699
REMARK SMILES Oc1ccc(-c2ccc(O)c(O)c2)cc1
REMARK SMILES IDX 4 1 3 2 2 3 15 4 14 5 5 6 6 7 13 8 7 9 11 10 8 11 9 12 12 13
REMARK SMILES IDX 10 15 1 17
REMARK H PARENT 12 14 10 16 1 18
ROOT
ATOM      1  C   UNL     1      -6.748  -2.639 -29.056  1.00  0.00     0.012 A 
ATOM      2  C   UNL     1      -5.751  -1.764 -29.499  1.00  0.00     0.047 A 
ATOM      3  C   UNL     1      -6.014  -0.912 -30.564  1.00  0.00     0.115 A 
ATOM      4  C   UNL     1      -7.253  -0.923 -31.191  1.00  0.00     0.047 A 
ATOM      5  C   UNL     1      -8.247  -1.799 -30.746  1.00  0.00     0.012 A 
ATOM      6  C   UNL     1      -8.011  -2.674 -29.672  1.00  0.00    -0.018 A 
ENDROOT
BRANCH   6   7
ATOM      7  C   UNL     1      -9.056  -3.600 -29.205  1.00  0.00    -0.014 A 
ATOM      8  C   UNL     1      -9.680  -4.492 -30.098  1.00  0.00     0.059 A 
ATOM      9  C   UNL     1      -9.454  -3.617 -27.853  1.00  0.00     0.013 A 
ATOM     10  C   UNL     1     -10.664  -5.363 -29.639  1.00  0.00     0.158 A 
ATOM     11  C   UNL     1     -10.443  -4.494 -27.400  1.00  0.00     0.051 A 
ATOM     12  C   UNL     1     -11.040  -5.361 -28.301  1.00  0.00     0.157 A 
BRANCH  10  13
ATOM     13  O   UNL     1     -11.292  -6.248 -30.475  1.00  0.00    -0.504 OA
ATOM     14  H   UNL     1     -11.687  -5.744 -31.207  1.00  0.00     0.293 HD
ENDBRANCH  10  13
BRANCH  12  15
ATOM     15  O   UNL     1     -12.006  -6.220 -27.861  1.00  0.00    -0.504 OA
ATOM     16  H   UNL     1     -12.823  -5.913 -28.301  1.00  0.00     0.293 HD
ENDBRANCH  12  15
ENDBRANCH   6   7
BRANCH   3  17
ATOM     17  O   UNL     1      -5.074  -0.042 -31.030  1.00  0.00    -0.508 OA
ATOM     18  H   UNL     1      -5.296   0.194 -31.946  1.00  0.00     0.293 HD
ENDBRANCH   3  17
TORSDOF 4
ENDMDL
MODEL 8
REMARK VINA RESULT:      -6.5      1.468      6.011
REMARK SMILES Oc1ccc(-c2ccc(O)c(O)c2)cc1
REMARK SMILES IDX 4 1 3 2 2 3 15 4 14 5 5 6 6 7 13 8 7 9 11 10 8 11 9 12 12 13
REMARK SMILES IDX 10 15 1 17
REMARK H PARENT 12 14 10 16 1 18
ROOT
ATOM      1  C   UNL     1      -5.184   0.310 -30.982  1.00  0.00     0.012 A 
ATOM      2  C   UNL     1      -4.017  -0.228 -30.429  1.00  0.00     0.047 A 
ATOM      3  C   UNL     1      -4.086  -1.416 -29.712  1.00  0.00     0.115 A 
ATOM      4  C   UNL     1      -5.297  -2.072 -29.541  1.00  0.00     0.047 A 
ATOM      5  C   UNL     1      -6.462  -1.532 -30.095  1.00  0.00     0.012 A 
ATOM      6  C   UNL     1      -6.425  -0.330 -30.823  1.00  0.00    -0.018 A 
ENDROOT
BRANCH   6   7
ATOM      7  C   UNL     1      -7.652   0.241 -31.404  1.00  0.00    -0.014 A 
ATOM      8  C   UNL     1      -8.918  -0.101 -30.893  1.00  0.00     0.059 A 
ATOM      9  C   UNL     1      -7.586   1.147 -32.482  1.00  0.00     0.013 A 
ATOM     10  C   UNL     1     -10.068   0.451 -31.452  1.00  0.00     0.158 A 
ATOM     11  C   UNL     1      -8.745   1.696 -33.038  1.00  0.00     0.051 A 
ATOM     12  C   UNL     1      -9.977   1.342 -32.516  1.00  0.00     0.157 A 
BRANCH  10  13
ATOM     13  O   UNL     1     -11.317   0.147 -30.982  1.00  0.00    -0.504 OA
ATOM     14  H   UNL     1     -11.318   0.278 -30.018  1.00  0.00     0.293 HD
ENDBRANCH  10  13
BRANCH  12  15
ATOM     15  O   UNL     1     -11.111   1.878 -33.055  1.00  0.00    -0.504 OA
ATOM     16  H   UNL     1     -10.809   2.697 -33.494  1.00  0.00     0.293 HD
ENDBRANCH  12  15
ENDBRANCH   6   7
BRANCH   3  17
ATOM     17  O   UNL     1      -2.975  -1.978 -29.156  1.00  0.00    -0.508 OA
ATOM     18  H   UNL     1      -3.128  -2.932 -29.055  1.00  0.00     0.293 HD
ENDBRANCH   3  17
TORSDOF 4
ENDMDL
MODEL 9
REMARK VINA RESULT:      -6.4      2.201      2.959
REMARK SMILES Oc1ccc(-c2ccc(O)c(O)c2)cc1
REMARK SMILES IDX 4 1 3 2 2 3 15 4 14 5 5 6 6 7 13 8 7 9 11 10 8 11 9 12 12 13
REMARK SMILES IDX 10 15 1 17
REMARK H PARENT 12 14 10 16 1 18
ROOT
ATOM      1  C   UNL     1      -6.816  -1.038 -30.709  1.00  0.00     0.012 A 
ATOM      2  C   UNL     1      -7.980  -1.663 -31.169  1.00  0.00     0.047 A 
ATOM      3  C   UNL     1      -8.461  -2.784 -30.504  1.00  0.00     0.115 A 
ATOM      4  C   UNL     1      -7.800  -3.287 -29.392  1.00  0.00     0.047 A 
ATOM      5  C   UNL     1      -6.637  -2.659 -28.934  1.00  0.00     0.012 A 
ATOM      6  C   UNL     1      -6.125  -1.525 -29.586  1.00  0.00    -0.018 A 
ENDROOT
BRANCH   6   7
ATOM      7  C   UNL     1      -4.898  -0.866 -29.108  1.00  0.00    -0.014 A 
ATOM      8  C   UNL     1      -3.821  -0.626 -29.981  1.00  0.00     0.059 A 
ATOM      9  C   UNL     1      -4.775  -0.458 -27.764  1.00  0.00     0.013 A 
ATOM     10  C   UNL     1      -2.669   0.001 -29.514  1.00  0.00     0.158 A 
ATOM     11  C   UNL     1      -3.616   0.170 -27.302  1.00  0.00     0.051 A 
ATOM     12  C   UNL     1      -2.572   0.394 -28.183  1.00  0.00     0.157 A 
BRANCH  10  13
ATOM     13  O   UNL     1      -1.602   0.256 -30.332  1.00  0.00    -0.504 OA
ATOM     14  H   UNL     1      -0.803   0.309 -29.780  1.00  0.00     0.293 HD
ENDBRANCH  10  13
BRANCH  12  15
ATOM     15  O   UNL     1      -1.438   1.009 -27.735  1.00  0.00    -0.504 OA
ATOM     16  H   UNL     1      -0.732   0.348 -27.871  1.00  0.00     0.293 HD
ENDBRANCH  12  15
ENDBRANCH   6   7
BRANCH   3  17
ATOM     17  O   UNL     1      -9.591  -3.426 -30.916  1.00  0.00    -0.508 OA
ATOM     18  H   UNL     1      -9.508  -4.370 -30.699  1.00  0.00     0.293 HD
ENDBRANCH   3  17
TORSDOF 4
ENDMDL
MODEL 10
REMARK VINA RESULT:      -6.4      4.542      6.105
REMARK SMILES Oc1ccc(-c2ccc(O)c(O)c2)cc1
REMARK SMILES IDX 4 1 3 2 2 3 15 4 14 5 5 6 6 7 13 8 7 9 11 10 8 11 9 12 12 13
REMARK SMILES IDX 10 15 1 17
REMARK H PARENT 12 14 10 16 1 18
ROOT
ATOM      1  C   UNL     1      -4.753  -0.165 -25.047  1.00  0.00     0.012 A 
ATOM      2  C   UNL     1      -5.692  -0.292 -24.018  1.00  0.00     0.047 A 
ATOM      3  C   UNL     1      -7.004  -0.629 -24.328  1.00  0.00     0.115 A 
ATOM      4  C   UNL     1      -7.389  -0.839 -25.645  1.00  0.00     0.047 A 
ATOM      5  C   UNL     1      -6.448  -0.712 -26.671  1.00  0.00     0.012 A 
ATOM      6  C   UNL     1      -5.114  -0.371 -26.390  1.00  0.00    -0.018 A 
ENDROOT
BRANCH   6   7
ATOM      7  C   UNL     1      -4.124  -0.232 -27.470  1.00  0.00    -0.014 A 
ATOM      8  C   UNL     1      -4.264  -0.949 -28.673  1.00  0.00     0.059 A 
ATOM      9  C   UNL     1      -3.013   0.624 -27.325  1.00  0.00     0.013 A 
ATOM     10  C   UNL     1      -3.320  -0.805 -29.686  1.00  0.00     0.158 A 
ATOM     11  C   UNL     1      -2.069   0.763 -28.346  1.00  0.00     0.051 A 
ATOM     12  C   UNL     1      -2.232   0.046 -29.519  1.00  0.00     0.157 A 
BRANCH  10  13
ATOM     13  O   UNL     1      -3.422  -1.481 -30.872  1.00  0.00    -0.504 OA
ATOM     14  H   UNL     1      -4.214  -1.160 -31.335  1.00  0.00     0.293 HD
ENDBRANCH  10  13
BRANCH  12  15
ATOM     15  O   UNL     1      -1.312   0.181 -30.519  1.00  0.00    -0.504 OA
ATOM     16  H   UNL     1      -1.822   0.039 -31.340  1.00  0.00     0.293 HD
ENDBRANCH  12  15
ENDBRANCH   6   7
BRANCH   3  17
ATOM     17  O   UNL     1      -7.953  -0.764 -23.359  1.00  0.00    -0.508 OA
ATOM     18  H   UNL     1      -8.829  -0.696 -23.772  1.00  0.00     0.293 HD
ENDBRANCH   3  17
TORSDOF 4
ENDMDL
