MODEL 1
REMARK VINA RESULT:      -6.1      0.000      0.000
REMARK SMILES C=Cc1cc(C(=O)O)cc(OC)c1OC
REMARK SMILES IDX 13 1 10 2 9 3 5 4 4 5 3 6 14 7 15 8 11 9 12 10 2 11 1 12
REMARK SMILES IDX 6 13 7 14 8 15
REMARK H PARENT 8 16
ROOT
ATOM      1  C   UNL     1      -6.894  -0.689 -31.242  1.00  0.00     0.167 A 
ATOM      2  C   UNL     1      -7.975  -1.590 -31.158  1.00  0.00     0.162 A 
ATOM      3  C   UNL     1      -9.210  -1.220 -31.691  1.00  0.00     0.066 A 
ATOM      4  C   UNL     1      -9.365   0.045 -32.272  1.00  0.00     0.064 A 
ATOM      5  C   UNL     1      -8.306   0.958 -32.298  1.00  0.00     0.028 A 
ATOM      6  C   UNL     1      -7.049   0.599 -31.795  1.00  0.00     0.021 A 
ENDROOT
BRANCH   1   7
ATOM      7  O   UNL     1      -5.676  -1.036 -30.695  1.00  0.00    -0.492 OA
ATOM      8  C   UNL     1      -5.658  -0.733 -29.299  1.00  0.00     0.278 C 
ENDBRANCH   1   7
BRANCH   2   9
ATOM      9  O   UNL     1      -7.721  -2.799 -30.564  1.00  0.00    -0.493 OA
ATOM     10  C   UNL     1      -8.746  -3.783 -30.634  1.00  0.00     0.278 C 
ENDBRANCH   2   9
BRANCH   6  11
ATOM     11  C   UNL     1      -5.933   1.561 -31.786  1.00  0.00     0.004 C 
ATOM     12  C   UNL     1      -5.836   2.618 -30.968  1.00  0.00     0.009 C 
ENDBRANCH   6  11
BRANCH   4  13
ATOM     13  C   UNL     1     -10.667   0.464 -32.833  1.00  0.00     0.335 C 
ATOM     14  O   UNL     1     -11.539  -0.321 -33.158  1.00  0.00    -0.246 OA
BRANCH  13  15
ATOM     15  O   UNL     1     -10.800   1.805 -32.897  1.00  0.00    -0.478 OA
ATOM     16  H   UNL     1     -11.717   2.130 -32.815  1.00  0.00     0.297 HD
ENDBRANCH  13  15
ENDBRANCH   4  13
TORSDOF 5
ENDMDL
MODEL 2
REMARK VINA RESULT:      -6.1      0.755      3.366
REMARK SMILES C=Cc1cc(C(=O)O)cc(OC)c1OC
REMARK SMILES IDX 13 1 10 2 9 3 5 4 4 5 3 6 14 7 15 8 11 9 12 10 2 11 1 12
REMARK SMILES IDX 6 13 7 14 8 15
REMARK H PARENT 8 16
ROOT
ATOM      1  C   UNL     1      -6.887  -0.756 -31.180  1.00  0.00     0.167 A 
ATOM      2  C   UNL     1      -6.907   0.452 -31.906  1.00  0.00     0.162 A 
ATOM      3  C   UNL     1      -8.103   0.878 -32.484  1.00  0.00     0.066 A 
ATOM      4  C   UNL     1      -9.254   0.089 -32.360  1.00  0.00     0.064 A 
ATOM      5  C   UNL     1      -9.214  -1.139 -31.691  1.00  0.00     0.028 A 
ATOM      6  C   UNL     1      -8.032  -1.573 -31.079  1.00  0.00     0.021 A 
ENDROOT
BRANCH   1   7
ATOM      7  O   UNL     1      -5.703  -1.198 -30.628  1.00  0.00    -0.492 OA
ATOM      8  C   UNL     1      -5.626  -0.814 -29.255  1.00  0.00     0.278 C 
ENDBRANCH   1   7
BRANCH   2   9
ATOM      9  O   UNL     1      -5.727   1.146 -31.975  1.00  0.00    -0.493 OA
ATOM     10  C   UNL     1      -5.595   2.285 -31.133  1.00  0.00     0.278 C 
ENDBRANCH   2   9
BRANCH   6  11
ATOM     11  C   UNL     1      -7.966  -2.879 -30.399  1.00  0.00     0.004 C 
ATOM     12  C   UNL     1      -8.824  -3.890 -30.591  1.00  0.00     0.009 C 
ENDBRANCH   6  11
BRANCH   4  13
ATOM     13  C   UNL     1     -10.530   0.514 -32.974  1.00  0.00     0.335 C 
ATOM     14  O   UNL     1     -11.302  -0.258 -33.514  1.00  0.00    -0.246 OA
BRANCH  13  15
ATOM     15  O   UNL     1     -10.766   1.834 -32.826  1.00  0.00    -0.478 OA
ATOM     16  H   UNL     1     -11.006   2.107 -31.920  1.00  0.00     0.297 HD
ENDBRANCH  13  15
ENDBRANCH   4  13
TORSDOF 5
ENDMDL
MODEL 3
REMARK VINA RESULT:      -5.8      1.822      4.247
REMARK SMILES C=Cc1cc(C(=O)O)cc(OC)c1OC
REMARK SMILES IDX 13 1 10 2 9 3 5 4 4 5 3 6 14 7 15 8 11 9 12 10 2 11 1 12
REMARK SMILES IDX 6 13 7 14 8 15
REMARK H PARENT 8 16
ROOT
ATOM      1  C   UNL     1      -6.367  -0.568 -30.992  1.00  0.00     0.167 A 
ATOM      2  C   UNL     1      -7.629  -0.895 -31.528  1.00  0.00     0.162 A 
ATOM      3  C   UNL     1      -8.291  -2.032 -31.064  1.00  0.00     0.066 A 
ATOM      4  C   UNL     1      -7.682  -2.844 -30.100  1.00  0.00     0.064 A 
ATOM      5  C   UNL     1      -6.404  -2.550 -29.615  1.00  0.00     0.028 A 
ATOM      6  C   UNL     1      -5.732  -1.399 -30.045  1.00  0.00     0.021 A 
ENDROOT
BRANCH   1   7
ATOM      7  O   UNL     1      -5.694   0.539 -31.464  1.00  0.00    -0.492 OA
ATOM      8  C   UNL     1      -6.032   1.690 -30.689  1.00  0.00     0.278 C 
ENDBRANCH   1   7
BRANCH   2   9
ATOM      9  O   UNL     1      -8.134  -0.039 -32.473  1.00  0.00    -0.493 OA
ATOM     10  C   UNL     1      -9.204  -0.521 -33.277  1.00  0.00     0.278 C 
ENDBRANCH   2   9
BRANCH   6  11
ATOM     11  C   UNL     1      -4.371  -1.093 -29.569  1.00  0.00     0.004 C 
ATOM     12  C   UNL     1      -3.712  -1.781 -28.628  1.00  0.00     0.009 C 
ENDBRANCH   6  11
BRANCH   4  13
ATOM     13  C   UNL     1      -8.359  -4.060 -29.601  1.00  0.00     0.335 C 
ATOM     14  O   UNL     1      -8.890  -4.878 -30.331  1.00  0.00    -0.246 OA
BRANCH  13  15
ATOM     15  O   UNL     1      -8.280  -4.188 -28.260  1.00  0.00    -0.478 OA
ATOM     16  H   UNL     1      -8.125  -3.353 -27.778  1.00  0.00     0.297 HD
ENDBRANCH  13  15
ENDBRANCH   4  13
TORSDOF 5
ENDMDL
MODEL 4
REMARK VINA RESULT:      -5.8      2.071      4.428
REMARK SMILES C=Cc1cc(C(=O)O)cc(OC)c1OC
REMARK SMILES IDX 13 1 10 2 9 3 5 4 4 5 3 6 14 7 15 8 11 9 12 10 2 11 1 12
REMARK SMILES IDX 6 13 7 14 8 15
REMARK H PARENT 8 16
ROOT
ATOM      1  C   UNL     1      -7.323  -0.665 -31.522  1.00  0.00     0.167 A 
ATOM      2  C   UNL     1      -6.529  -1.209 -30.492  1.00  0.00     0.162 A 
ATOM      3  C   UNL     1      -6.932  -2.394 -29.876  1.00  0.00     0.066 A 
ATOM      4  C   UNL     1      -8.128  -3.008 -30.268  1.00  0.00     0.064 A 
ATOM      5  C   UNL     1      -8.943  -2.433 -31.248  1.00  0.00     0.028 A 
ATOM      6  C   UNL     1      -8.546  -1.259 -31.900  1.00  0.00     0.021 A 
ENDROOT
BRANCH   1   7
ATOM      7  O   UNL     1      -6.946   0.520 -32.117  1.00  0.00    -0.492 OA
ATOM      8  C   UNL     1      -7.427   1.629 -31.357  1.00  0.00     0.278 C 
ENDBRANCH   1   7
BRANCH   2   9
ATOM      9  O   UNL     1      -5.382  -0.527 -30.177  1.00  0.00    -0.493 OA
ATOM     10  C   UNL     1      -4.221  -1.303 -29.905  1.00  0.00     0.278 C 
ENDBRANCH   2   9
BRANCH   6  11
ATOM     11  C   UNL     1      -9.409  -0.623 -32.911  1.00  0.00     0.004 C 
ATOM     12  C   UNL     1     -10.618  -0.098 -32.669  1.00  0.00     0.009 C 
ENDBRANCH   6  11
BRANCH   4  13
ATOM     13  C   UNL     1      -8.582  -4.259 -29.623  1.00  0.00     0.335 C 
ATOM     14  O   UNL     1      -9.091  -5.181 -30.235  1.00  0.00    -0.246 OA
BRANCH  13  15
ATOM     15  O   UNL     1      -8.326  -4.285 -28.298  1.00  0.00    -0.478 OA
ATOM     16  H   UNL     1      -8.339  -3.412 -27.862  1.00  0.00     0.297 HD
ENDBRANCH  13  15
ENDBRANCH   4  13
TORSDOF 5
ENDMDL
MODEL 5
REMARK VINA RESULT:      -5.7      1.834      3.181
REMARK SMILES C=Cc1cc(C(=O)O)cc(OC)c1OC
REMARK SMILES IDX 13 1 10 2 9 3 5 4 4 5 3 6 14 7 15 8 11 9 12 10 2 11 1 12
REMARK SMILES IDX 6 13 7 14 8 15
REMARK H PARENT 8 16
ROOT
ATOM      1  C   UNL     1      -7.644  -0.389 -29.934  1.00  0.00     0.167 A 
ATOM      2  C   UNL     1      -7.194  -0.273 -31.265  1.00  0.00     0.162 A 
ATOM      3  C   UNL     1      -8.109   0.055 -32.266  1.00  0.00     0.066 A 
ATOM      4  C   UNL     1      -9.460   0.234 -31.940  1.00  0.00     0.064 A 
ATOM      5  C   UNL     1      -9.912   0.058 -30.628  1.00  0.00     0.028 A 
ATOM      6  C   UNL     1      -9.007  -0.243 -29.602  1.00  0.00     0.021 A 
ENDROOT
BRANCH   1   7
ATOM      7  O   UNL     1      -6.752  -0.739 -28.943  1.00  0.00    -0.492 OA
ATOM      8  C   UNL     1      -6.592  -2.157 -28.901  1.00  0.00     0.278 C 
ENDBRANCH   1   7
BRANCH   2   9
ATOM      9  O   UNL     1      -5.856  -0.476 -31.480  1.00  0.00    -0.493 OA
ATOM     10  C   UNL     1      -5.041   0.680 -31.631  1.00  0.00     0.278 C 
ENDBRANCH   2   9
BRANCH   6  11
ATOM     11  C   UNL     1      -9.473  -0.464 -28.222  1.00  0.00     0.004 C 
ATOM     12  C   UNL     1     -10.241  -1.486 -27.823  1.00  0.00     0.009 C 
ENDBRANCH   6  11
BRANCH   4  13
ATOM     13  C   UNL     1     -10.450   0.571 -32.985  1.00  0.00     0.335 C 
ATOM     14  O   UNL     1     -10.832  -0.223 -33.825  1.00  0.00    -0.246 OA
BRANCH  13  15
ATOM     15  O   UNL     1     -10.918   1.832 -32.873  1.00  0.00    -0.478 OA
ATOM     16  H   UNL     1     -10.622   2.441 -33.575  1.00  0.00     0.297 HD
ENDBRANCH  13  15
ENDBRANCH   4  13
TORSDOF 5
ENDMDL
MODEL 6
REMARK VINA RESULT:      -5.7      1.889      4.253
REMARK SMILES C=Cc1cc(C(=O)O)cc(OC)c1OC
REMARK SMILES IDX 13 1 10 2 9 3 5 4 4 5 3 6 14 7 15 8 11 9 12 10 2 11 1 12
REMARK SMILES IDX 6 13 7 14 8 15
REMARK H PARENT 8 16
ROOT
ATOM      1  C   UNL     1      -7.911  -0.920 -31.640  1.00  0.00     0.167 A 
ATOM      2  C   UNL     1      -6.821  -1.149 -30.777  1.00  0.00     0.162 A 
ATOM      3  C   UNL     1      -5.761  -0.241 -30.765  1.00  0.00     0.066 A 
ATOM      4  C   UNL     1      -5.782   0.862 -31.627  1.00  0.00     0.064 A 
ATOM      5  C   UNL     1      -6.838   1.051 -32.525  1.00  0.00     0.028 A 
ATOM      6  C   UNL     1      -7.925   0.170 -32.535  1.00  0.00     0.021 A 
ENDROOT
BRANCH   1   7
ATOM      7  O   UNL     1      -8.951  -1.825 -31.677  1.00  0.00    -0.492 OA
ATOM      8  C   UNL     1      -9.958  -1.460 -30.733  1.00  0.00     0.278 C 
ENDBRANCH   1   7
BRANCH   2   9
ATOM      9  O   UNL     1      -6.893  -2.261 -29.979  1.00  0.00    -0.493 OA
ATOM     10  C   UNL     1      -6.917  -2.049 -28.572  1.00  0.00     0.278 C 
ENDBRANCH   2   9
BRANCH   6  11
ATOM     11  C   UNL     1      -9.028   0.338 -33.498  1.00  0.00     0.004 C 
ATOM     12  C   UNL     1     -10.038   1.208 -33.367  1.00  0.00     0.009 C 
ENDBRANCH   6  11
BRANCH   4  13
ATOM     13  C   UNL     1      -4.665   1.831 -31.641  1.00  0.00     0.335 C 
ATOM     14  O   UNL     1      -4.535   2.713 -30.813  1.00  0.00    -0.246 OA
BRANCH  13  15
ATOM     15  O   UNL     1      -3.787   1.599 -32.639  1.00  0.00    -0.478 OA
ATOM     16  H   UNL     1      -2.865   1.851 -32.438  1.00  0.00     0.297 HD
ENDBRANCH  13  15
ENDBRANCH   4  13
TORSDOF 5
ENDMDL
MODEL 7
REMARK VINA RESULT:      -5.6      3.343      6.390
REMARK SMILES C=Cc1cc(C(=O)O)cc(OC)c1OC
REMARK SMILES IDX 13 1 10 2 9 3 5 4 4 5 3 6 14 7 15 8 11 9 12 10 2 11 1 12
REMARK SMILES IDX 6 13 7 14 8 15
REMARK H PARENT 8 16
ROOT
ATOM      1  C   UNL     1      -5.895  -1.553 -27.700  1.00  0.00     0.167 A 
ATOM      2  C   UNL     1      -5.590  -1.473 -29.074  1.00  0.00     0.162 A 
ATOM      3  C   UNL     1      -4.407  -0.850 -29.473  1.00  0.00     0.066 A 
ATOM      4  C   UNL     1      -3.559  -0.289 -28.510  1.00  0.00     0.064 A 
ATOM      5  C   UNL     1      -3.896  -0.317 -27.152  1.00  0.00     0.028 A 
ATOM      6  C   UNL     1      -5.064  -0.962 -26.726  1.00  0.00     0.021 A 
ENDROOT
BRANCH   1   7
ATOM      7  O   UNL     1      -7.074  -2.144 -27.299  1.00  0.00    -0.492 OA
ATOM      8  C   UNL     1      -8.120  -1.173 -27.247  1.00  0.00     0.278 C 
ENDBRANCH   1   7
BRANCH   2   9
ATOM      9  O   UNL     1      -6.488  -2.046 -29.936  1.00  0.00    -0.493 OA
ATOM     10  C   UNL     1      -7.162  -1.179 -30.840  1.00  0.00     0.278 C 
ENDBRANCH   2   9
BRANCH   6  11
ATOM     11  C   UNL     1      -5.448  -0.971 -25.303  1.00  0.00     0.004 C 
ATOM     12  C   UNL     1      -5.264   0.045 -24.450  1.00  0.00     0.009 C 
ENDBRANCH   6  11
BRANCH   4  13
ATOM     13  C   UNL     1      -2.306   0.387 -28.908  1.00  0.00     0.335 C 
ATOM     14  O   UNL     1      -1.532   0.885 -28.111  1.00  0.00    -0.246 OA
BRANCH  13  15
ATOM     15  O   UNL     1      -2.093   0.348 -30.240  1.00  0.00    -0.478 OA
ATOM     16  H   UNL     1      -2.199   1.204 -30.697  1.00  0.00     0.297 HD
ENDBRANCH  13  15
ENDBRANCH   4  13
TORSDOF 5
ENDMDL
MODEL 8
REMARK VINA RESULT:      -5.5      2.446      4.214
REMARK SMILES C=Cc1cc(C(=O)O)cc(OC)c1OC
REMARK SMILES IDX 13 1 10 2 9 3 5 4 4 5 3 6 14 7 15 8 11 9 12 10 2 11 1 12
REMARK SMILES IDX 6 13 7 14 8 15
REMARK H PARENT 8 16
ROOT
ATOM      1  C   UNL     1      -5.979  -0.062 -31.044  1.00  0.00     0.167 A 
ATOM      2  C   UNL     1      -5.351  -0.918 -30.116  1.00  0.00     0.162 A 
ATOM      3  C   UNL     1      -5.995  -2.094 -29.732  1.00  0.00     0.066 A 
ATOM      4  C   UNL     1      -7.263  -2.392 -30.249  1.00  0.00     0.064 A 
ATOM      5  C   UNL     1      -7.908  -1.510 -31.122  1.00  0.00     0.028 A 
ATOM      6  C   UNL     1      -7.269  -0.338 -31.544  1.00  0.00     0.021 A 
ENDROOT
BRANCH   1   7
ATOM      7  O   UNL     1      -5.361   1.115 -31.409  1.00  0.00    -0.492 OA
ATOM      8  C   UNL     1      -5.691   2.153 -30.485  1.00  0.00     0.278 C 
ENDBRANCH   1   7
BRANCH   2   9
ATOM      9  O   UNL     1      -4.116  -0.532 -29.665  1.00  0.00    -0.493 OA
ATOM     10  C   UNL     1      -3.315  -1.527 -29.038  1.00  0.00     0.278 C 
ENDBRANCH   2   9
BRANCH   6  11
ATOM     11  C   UNL     1      -7.949   0.617 -32.437  1.00  0.00     0.004 C 
ATOM     12  C   UNL     1      -8.207   0.406 -33.735  1.00  0.00     0.009 C 
ENDBRANCH   6  11
BRANCH   4  13
ATOM     13  C   UNL     1      -7.970  -3.627 -29.848  1.00  0.00     0.335 C 
ATOM     14  O   UNL     1      -8.410  -4.435 -30.646  1.00  0.00    -0.246 OA
BRANCH  13  15
ATOM     15  O   UNL     1      -8.031  -3.782 -28.509  1.00  0.00    -0.478 OA
ATOM     16  H   UNL     1      -8.282  -4.678 -28.213  1.00  0.00     0.297 HD
ENDBRANCH  13  15
ENDBRANCH   4  13
TORSDOF 5
ENDMDL
MODEL 9
REMARK VINA RESULT:      -5.4      2.035      4.600
REMARK SMILES C=Cc1cc(C(=O)O)cc(OC)c1OC
REMARK SMILES IDX 13 1 10 2 9 3 5 4 4 5 3 6 14 7 15 8 11 9 12 10 2 11 1 12
REMARK SMILES IDX 6 13 7 14 8 15
REMARK H PARENT 8 16
ROOT
ATOM      1  C   UNL     1      -7.765  -0.925 -30.910  1.00  0.00     0.167 A 
ATOM      2  C   UNL     1      -7.110  -1.884 -30.111  1.00  0.00     0.162 A 
ATOM      3  C   UNL     1      -5.727  -1.802 -29.946  1.00  0.00     0.066 A 
ATOM      4  C   UNL     1      -5.010  -0.791 -30.598  1.00  0.00     0.064 A 
ATOM      5  C   UNL     1      -5.656   0.122 -31.439  1.00  0.00     0.028 A 
ATOM      6  C   UNL     1      -7.047   0.076 -31.597  1.00  0.00     0.021 A 
ENDROOT
BRANCH   1   7
ATOM      7  O   UNL     1      -9.128  -1.014 -31.099  1.00  0.00    -0.492 OA
ATOM      8  C   UNL     1      -9.818  -0.332 -30.051  1.00  0.00     0.278 C 
ENDBRANCH   1   7
BRANCH   2   9
ATOM      9  O   UNL     1      -7.902  -2.836 -29.524  1.00  0.00    -0.493 OA
ATOM     10  C   UNL     1      -8.110  -4.043 -30.248  1.00  0.00     0.278 C 
ENDBRANCH   2   9
BRANCH   6  11
ATOM     11  C   UNL     1      -7.738   1.009 -32.504  1.00  0.00     0.004 C 
ATOM     12  C   UNL     1      -7.949   0.798 -33.810  1.00  0.00     0.009 C 
ENDBRANCH   6  11
BRANCH   4  13
ATOM     13  C   UNL     1      -3.542  -0.690 -30.449  1.00  0.00     0.335 C 
ATOM     14  O   UNL     1      -2.983  -0.625 -29.369  1.00  0.00    -0.246 OA
BRANCH  13  15
ATOM     15  O   UNL     1      -2.894  -0.727 -31.631  1.00  0.00    -0.478 OA
ATOM     16  H   UNL     1      -2.679  -1.623 -31.952  1.00  0.00     0.297 HD
ENDBRANCH  13  15
ENDBRANCH   4  13
TORSDOF 5
ENDMDL
MODEL 10
REMARK VINA RESULT:      -5.4      3.327      6.007
REMARK SMILES C=Cc1cc(C(=O)O)cc(OC)c1OC
REMARK SMILES IDX 13 1 10 2 9 3 5 4 4 5 3 6 14 7 15 8 11 9 12 10 2 11 1 12
REMARK SMILES IDX 6 13 7 14 8 15
REMARK H PARENT 8 16
ROOT
ATOM      1  C   UNL     1      -5.119  -1.013 -29.128  1.00  0.00     0.167 A 
ATOM      2  C   UNL     1      -6.390  -1.253 -28.568  1.00  0.00     0.162 A 
ATOM      3  C   UNL     1      -6.552  -1.162 -27.186  1.00  0.00     0.066 A 
ATOM      4  C   UNL     1      -5.449  -0.864 -26.376  1.00  0.00     0.064 A 
ATOM      5  C   UNL     1      -4.178  -0.687 -26.931  1.00  0.00     0.028 A 
ATOM      6  C   UNL     1      -3.996  -0.746 -28.318  1.00  0.00     0.021 A 
ENDROOT
BRANCH   1   7
ATOM      7  O   UNL     1      -4.944  -1.128 -30.491  1.00  0.00    -0.492 OA
ATOM      8  C   UNL     1      -5.154   0.136 -31.123  1.00  0.00     0.278 C 
ENDBRANCH   1   7
BRANCH   2   9
ATOM      9  O   UNL     1      -7.402  -1.545 -29.446  1.00  0.00    -0.493 OA
ATOM     10  C   UNL     1      -7.755  -2.915 -29.597  1.00  0.00     0.278 C 
ENDBRANCH   2   9
BRANCH   6  11
ATOM     11  C   UNL     1      -2.657  -0.594 -28.914  1.00  0.00     0.004 C 
ATOM     12  C   UNL     1      -1.914   0.519 -28.865  1.00  0.00     0.009 C 
ENDBRANCH   6  11
BRANCH   4  13
ATOM     13  C   UNL     1      -5.594  -0.772 -24.907  1.00  0.00     0.335 C 
ATOM     14  O   UNL     1      -5.075   0.102 -24.237  1.00  0.00    -0.246 OA
BRANCH  13  15
ATOM     15  O   UNL     1      -6.398  -1.731 -24.402  1.00  0.00    -0.478 OA
ATOM     16  H   UNL     1      -7.060  -1.411 -23.759  1.00  0.00     0.297 HD
ENDBRANCH  13  15
ENDBRANCH   4  13
TORSDOF 5
ENDMDL
