MODEL 1
REMARK VINA RESULT:      -6.2      0.000      0.000
REMARK SMILES O=C(O)c1ccc(O)c(O)c1
REMARK SMILES IDX 5 1 6 2 7 3 9 4 11 5 4 6 2 7 1 8 3 9 8 11 10 13
REMARK H PARENT 3 10 8 12 10 14
ROOT
ATOM      1  C   UNL     1      -0.890  -9.314 -26.262  1.00  0.00     0.020 A 
ATOM      2  C   UNL     1       0.148 -10.096 -25.744  1.00  0.00     0.051 A 
ATOM      3  C   UNL     1       0.253 -11.423 -26.143  1.00  0.00     0.157 A 
ATOM      4  C   UNL     1      -0.667 -11.968 -27.037  1.00  0.00     0.158 A 
ATOM      5  C   UNL     1      -1.704 -11.204 -27.555  1.00  0.00     0.065 A 
ATOM      6  C   UNL     1      -1.805  -9.861 -27.175  1.00  0.00     0.063 A 
ENDROOT
BRANCH   6   7
ATOM      7  C   UNL     1      -2.887  -8.990 -27.690  1.00  0.00     0.335 C 
ATOM      8  O   UNL     1      -3.110  -8.848 -28.880  1.00  0.00    -0.246 OA
BRANCH   7   9
ATOM      9  O   UNL     1      -3.634  -8.426 -26.719  1.00  0.00    -0.478 OA
ATOM     10  H   UNL     1      -4.253  -7.736 -27.023  1.00  0.00     0.297 HD
ENDBRANCH   7   9
ENDBRANCH   6   7
BRANCH   3  11
ATOM     11  O   UNL     1       1.244 -12.241 -25.676  1.00  0.00    -0.504 OA
ATOM     12  H   UNL     1       0.972 -13.164 -25.820  1.00  0.00     0.293 HD
ENDBRANCH   3  11
BRANCH   4  13
ATOM     13  O   UNL     1      -0.559 -13.275 -27.414  1.00  0.00    -0.504 OA
ATOM     14  H   UNL     1       0.197 -13.294 -28.035  1.00  0.00     0.293 HD
ENDBRANCH   4  13
TORSDOF 4
ENDMDL
MODEL 2
REMARK VINA RESULT:      -5.9     13.815     15.223
REMARK SMILES O=C(O)c1ccc(O)c(O)c1
REMARK SMILES IDX 5 1 6 2 7 3 9 4 11 5 4 6 2 7 1 8 3 9 8 11 10 13
REMARK H PARENT 3 10 8 12 10 14
ROOT
ATOM      1  C   UNL     1       7.854  -0.778 -19.244  1.00  0.00     0.020 A 
ATOM      2  C   UNL     1       8.269  -0.131 -18.076  1.00  0.00     0.051 A 
ATOM      3  C   UNL     1       7.607  -0.400 -16.885  1.00  0.00     0.157 A 
ATOM      4  C   UNL     1       6.537  -1.293 -16.857  1.00  0.00     0.158 A 
ATOM      5  C   UNL     1       6.110  -1.939 -18.010  1.00  0.00     0.065 A 
ATOM      6  C   UNL     1       6.787  -1.691 -19.209  1.00  0.00     0.063 A 
ENDROOT
BRANCH   6   7
ATOM      7  C   UNL     1       6.385  -2.347 -20.475  1.00  0.00     0.335 C 
ATOM      8  O   UNL     1       5.771  -1.766 -21.353  1.00  0.00    -0.246 OA
BRANCH   7   9
ATOM      9  O   UNL     1       6.818  -3.620 -20.585  1.00  0.00    -0.478 OA
ATOM     10  H   UNL     1       6.197  -4.231 -21.026  1.00  0.00     0.297 HD
ENDBRANCH   7   9
ENDBRANCH   6   7
BRANCH   3  11
ATOM     11  O   UNL     1       7.963   0.197 -15.708  1.00  0.00    -0.504 OA
ATOM     12  H   UNL     1       8.475   0.999 -15.913  1.00  0.00     0.293 HD
ENDBRANCH   3  11
BRANCH   4  13
ATOM     13  O   UNL     1       5.887  -1.543 -15.683  1.00  0.00    -0.504 OA
ATOM     14  H   UNL     1       5.691  -0.658 -15.314  1.00  0.00     0.293 HD
ENDBRANCH   4  13
TORSDOF 4
ENDMDL
MODEL 3
REMARK VINA RESULT:      -5.9      1.231      4.128
REMARK SMILES O=C(O)c1ccc(O)c(O)c1
REMARK SMILES IDX 5 1 6 2 7 3 9 4 11 5 4 6 2 7 1 8 3 9 8 11 10 13
REMARK H PARENT 3 10 8 12 10 14
ROOT
ATOM      1  C   UNL     1       0.367  -9.606 -26.584  1.00  0.00     0.020 A 
ATOM      2  C   UNL     1      -0.429  -8.665 -27.245  1.00  0.00     0.051 A 
ATOM      3  C   UNL     1      -1.704  -9.034 -27.656  1.00  0.00     0.157 A 
ATOM      4  C   UNL     1      -2.177 -10.324 -27.424  1.00  0.00     0.158 A 
ATOM      5  C   UNL     1      -1.395 -11.270 -26.774  1.00  0.00     0.065 A 
ATOM      6  C   UNL     1      -0.119 -10.900 -26.336  1.00  0.00     0.063 A 
ENDROOT
BRANCH   6   7
ATOM      7  C   UNL     1       0.767 -11.859 -25.636  1.00  0.00     0.335 C 
ATOM      8  O   UNL     1       0.997 -12.977 -26.062  1.00  0.00    -0.246 OA
BRANCH   7   9
ATOM      9  O   UNL     1       1.340 -11.352 -24.525  1.00  0.00    -0.478 OA
ATOM     10  H   UNL     1       0.715 -11.029 -23.848  1.00  0.00     0.297 HD
ENDBRANCH   7   9
ENDBRANCH   6   7
BRANCH   3  11
ATOM     11  O   UNL     1      -2.534  -8.163 -28.306  1.00  0.00    -0.504 OA
ATOM     12  H   UNL     1      -1.988  -7.536 -28.810  1.00  0.00     0.293 HD
ENDBRANCH   3  11
BRANCH   4  13
ATOM     13  O   UNL     1      -3.427 -10.678 -27.842  1.00  0.00    -0.504 OA
ATOM     14  H   UNL     1      -3.310 -10.951 -28.775  1.00  0.00     0.293 HD
ENDBRANCH   4  13
TORSDOF 4
ENDMDL
MODEL 4
REMARK VINA RESULT:      -5.8      2.162      2.855
REMARK SMILES O=C(O)c1ccc(O)c(O)c1
REMARK SMILES IDX 5 1 6 2 7 3 9 4 11 5 4 6 2 7 1 8 3 9 8 11 10 13
REMARK H PARENT 3 10 8 12 10 14
ROOT
ATOM      1  C   UNL     1      -3.497  -8.614 -26.955  1.00  0.00     0.020 A 
ATOM      2  C   UNL     1      -2.154  -8.253 -27.102  1.00  0.00     0.051 A 
ATOM      3  C   UNL     1      -1.227  -9.233 -27.434  1.00  0.00     0.157 A 
ATOM      4  C   UNL     1      -1.628 -10.557 -27.607  1.00  0.00     0.158 A 
ATOM      5  C   UNL     1      -2.957 -10.930 -27.459  1.00  0.00     0.065 A 
ATOM      6  C   UNL     1      -3.901  -9.945 -27.147  1.00  0.00     0.063 A 
ENDROOT
BRANCH   6   7
ATOM      7  C   UNL     1      -5.335 -10.274 -26.975  1.00  0.00     0.335 C 
ATOM      8  O   UNL     1      -5.718 -11.336 -26.517  1.00  0.00    -0.246 OA
BRANCH   7   9
ATOM      9  O   UNL     1      -6.164  -9.265 -27.313  1.00  0.00    -0.478 OA
ATOM     10  H   UNL     1      -7.085  -9.531 -27.497  1.00  0.00     0.297 HD
ENDBRANCH   7   9
ENDBRANCH   6   7
BRANCH   3  11
ATOM     11  O   UNL     1       0.101  -8.948 -27.594  1.00  0.00    -0.504 OA
ATOM     12  H   UNL     1       0.180  -8.050 -27.959  1.00  0.00     0.293 HD
ENDBRANCH   3  11
BRANCH   4  13
ATOM     13  O   UNL     1      -0.706 -11.513 -27.923  1.00  0.00    -0.504 OA
ATOM     14  H   UNL     1      -0.083 -11.518 -27.168  1.00  0.00     0.293 HD
ENDBRANCH   4  13
TORSDOF 4
ENDMDL
MODEL 5
REMARK VINA RESULT:      -5.7     14.120     15.563
REMARK SMILES O=C(O)c1ccc(O)c(O)c1
REMARK SMILES IDX 5 1 6 2 7 3 9 4 11 5 4 6 2 7 1 8 3 9 8 11 10 13
REMARK H PARENT 3 10 8 12 10 14
ROOT
ATOM      1  C   UNL     1       6.188  -2.086 -17.784  1.00  0.00     0.020 A 
ATOM      2  C   UNL     1       6.539  -1.503 -16.563  1.00  0.00     0.051 A 
ATOM      3  C   UNL     1       7.466  -0.469 -16.553  1.00  0.00     0.157 A 
ATOM      4  C   UNL     1       8.046  -0.027 -17.741  1.00  0.00     0.158 A 
ATOM      5  C   UNL     1       7.711  -0.601 -18.960  1.00  0.00     0.065 A 
ATOM      6  C   UNL     1       6.761  -1.627 -18.982  1.00  0.00     0.063 A 
ENDROOT
BRANCH   6   7
ATOM      7  C   UNL     1       6.357  -2.282 -20.247  1.00  0.00     0.335 C 
ATOM      8  O   UNL     1       5.780  -1.690 -21.143  1.00  0.00    -0.246 OA
BRANCH   7   9
ATOM      9  O   UNL     1       6.745  -3.571 -20.336  1.00  0.00    -0.478 OA
ATOM     10  H   UNL     1       6.754  -3.939 -21.240  1.00  0.00     0.297 HD
ENDBRANCH   7   9
ENDBRANCH   6   7
BRANCH   3  11
ATOM     11  O   UNL     1       7.852   0.146 -15.394  1.00  0.00    -0.504 OA
ATOM     12  H   UNL     1       8.456  -0.449 -14.918  1.00  0.00     0.293 HD
ENDBRANCH   3  11
BRANCH   4  13
ATOM     13  O   UNL     1       8.964   0.983 -17.718  1.00  0.00    -0.504 OA
ATOM     14  H   UNL     1       9.225   1.104 -18.654  1.00  0.00     0.293 HD
ENDBRANCH   4  13
TORSDOF 4
ENDMDL
MODEL 6
REMARK VINA RESULT:      -5.7      1.102      4.550
REMARK SMILES O=C(O)c1ccc(O)c(O)c1
REMARK SMILES IDX 5 1 6 2 7 3 9 4 11 5 4 6 2 7 1 8 3 9 8 11 10 13
REMARK H PARENT 3 10 8 12 10 14
ROOT
ATOM      1  C   UNL     1      -0.713 -11.792 -27.513  1.00  0.00     0.020 A 
ATOM      2  C   UNL     1      -1.588 -10.921 -28.169  1.00  0.00     0.051 A 
ATOM      3  C   UNL     1      -1.856  -9.682 -27.601  1.00  0.00     0.157 A 
ATOM      4  C   UNL     1      -1.271  -9.318 -26.389  1.00  0.00     0.158 A 
ATOM      5  C   UNL     1      -0.405 -10.176 -25.724  1.00  0.00     0.065 A 
ATOM      6  C   UNL     1      -0.112 -11.416 -26.301  1.00  0.00     0.063 A 
ENDROOT
BRANCH   6   7
ATOM      7  C   UNL     1       0.804 -12.378 -25.645  1.00  0.00     0.335 C 
ATOM      8  O   UNL     1       1.342 -13.292 -26.246  1.00  0.00    -0.246 OA
BRANCH   7   9
ATOM      9  O   UNL     1       1.032 -12.106 -24.343  1.00  0.00    -0.478 OA
ATOM     10  H   UNL     1       0.231 -11.958 -23.806  1.00  0.00     0.297 HD
ENDBRANCH   7   9
ENDBRANCH   6   7
BRANCH   3  11
ATOM     11  O   UNL     1      -2.700  -8.783 -28.191  1.00  0.00    -0.504 OA
ATOM     12  H   UNL     1      -2.990  -8.145 -27.516  1.00  0.00     0.293 HD
ENDBRANCH   3  11
BRANCH   4  13
ATOM     13  O   UNL     1      -1.549  -8.102 -25.834  1.00  0.00    -0.504 OA
ATOM     14  H   UNL     1      -1.329  -7.454 -26.533  1.00  0.00     0.293 HD
ENDBRANCH   4  13
TORSDOF 4
ENDMDL
MODEL 7
REMARK VINA RESULT:      -5.6     12.148     13.987
REMARK SMILES O=C(O)c1ccc(O)c(O)c1
REMARK SMILES IDX 5 1 6 2 7 3 9 4 11 5 4 6 2 7 1 8 3 9 8 11 10 13
REMARK H PARENT 3 10 8 12 10 14
ROOT
ATOM      1  C   UNL     1      -8.183   1.359 -32.955  1.00  0.00     0.020 A 
ATOM      2  C   UNL     1      -6.847   1.173 -32.586  1.00  0.00     0.051 A 
ATOM      3  C   UNL     1      -6.515   0.086 -31.787  1.00  0.00     0.157 A 
ATOM      4  C   UNL     1      -7.500  -0.798 -31.350  1.00  0.00     0.158 A 
ATOM      5  C   UNL     1      -8.831  -0.622 -31.704  1.00  0.00     0.065 A 
ATOM      6  C   UNL     1      -9.171   0.456 -32.528  1.00  0.00     0.063 A 
ENDROOT
BRANCH   6   7
ATOM      7  C   UNL     1     -10.571   0.702 -32.944  1.00  0.00     0.335 C 
ATOM      8  O   UNL     1     -11.383  -0.195 -33.090  1.00  0.00    -0.246 OA
BRANCH   7   9
ATOM      9  O   UNL     1     -10.872   2.010 -33.081  1.00  0.00    -0.478 OA
ATOM     10  H   UNL     1     -11.321   2.413 -32.314  1.00  0.00     0.297 HD
ENDBRANCH   7   9
ENDBRANCH   6   7
BRANCH   3  11
ATOM     11  O   UNL     1      -5.228  -0.154 -31.392  1.00  0.00    -0.504 OA
ATOM     12  H   UNL     1      -4.785  -0.671 -32.086  1.00  0.00     0.293 HD
ENDBRANCH   3  11
BRANCH   4  13
ATOM     13  O   UNL     1      -7.163  -1.857 -30.557  1.00  0.00    -0.504 OA
ATOM     14  H   UNL     1      -8.000  -2.349 -30.431  1.00  0.00     0.293 HD
ENDBRANCH   4  13
TORSDOF 4
ENDMDL
MODEL 8
REMARK VINA RESULT:      -5.6      9.897     10.726
REMARK SMILES O=C(O)c1ccc(O)c(O)c1
REMARK SMILES IDX 5 1 6 2 7 3 9 4 11 5 4 6 2 7 1 8 3 9 8 11 10 13
REMARK H PARENT 3 10 8 12 10 14
ROOT
ATOM      1  C   UNL     1      -3.077   0.520 -27.218  1.00  0.00     0.020 A 
ATOM      2  C   UNL     1      -2.302   0.795 -28.349  1.00  0.00     0.051 A 
ATOM      3  C   UNL     1      -2.457   0.004 -29.480  1.00  0.00     0.157 A 
ATOM      4  C   UNL     1      -3.364  -1.054 -29.484  1.00  0.00     0.158 A 
ATOM      5  C   UNL     1      -4.136  -1.343 -28.367  1.00  0.00     0.065 A 
ATOM      6  C   UNL     1      -4.002  -0.537 -27.231  1.00  0.00     0.063 A 
ENDROOT
BRANCH   6   7
ATOM      7  C   UNL     1      -4.796  -0.788 -26.006  1.00  0.00     0.335 C 
ATOM      8  O   UNL     1      -5.357  -1.848 -25.788  1.00  0.00    -0.246 OA
BRANCH   7   9
ATOM      9  O   UNL     1      -4.782   0.241 -25.133  1.00  0.00    -0.478 OA
ATOM     10  H   UNL     1      -4.629   1.118 -25.532  1.00  0.00     0.297 HD
ENDBRANCH   7   9
ENDBRANCH   6   7
BRANCH   3  11
ATOM     11  O   UNL     1      -1.732   0.220 -30.619  1.00  0.00    -0.504 OA
ATOM     12  H   UNL     1      -1.474  -0.643 -30.987  1.00  0.00     0.293 HD
ENDBRANCH   3  11
BRANCH   4  13
ATOM     13  O   UNL     1      -3.501  -1.832 -30.598  1.00  0.00    -0.504 OA
ATOM     14  H   UNL     1      -3.660  -1.197 -31.326  1.00  0.00     0.293 HD
ENDBRANCH   4  13
TORSDOF 4
ENDMDL
MODEL 9
REMARK VINA RESULT:      -5.3      9.617     11.146
REMARK SMILES O=C(O)c1ccc(O)c(O)c1
REMARK SMILES IDX 5 1 6 2 7 3 9 4 11 5 4 6 2 7 1 8 3 9 8 11 10 13
REMARK H PARENT 3 10 8 12 10 14
ROOT
ATOM      1  C   UNL     1      -3.968  -1.922 -28.408  1.00  0.00     0.020 A 
ATOM      2  C   UNL     1      -3.541  -1.903 -29.740  1.00  0.00     0.051 A 
ATOM      3  C   UNL     1      -3.457  -0.685 -30.402  1.00  0.00     0.157 A 
ATOM      4  C   UNL     1      -3.803   0.499 -29.752  1.00  0.00     0.158 A 
ATOM      5  C   UNL     1      -4.234   0.494 -28.432  1.00  0.00     0.065 A 
ATOM      6  C   UNL     1      -4.299  -0.726 -27.751  1.00  0.00     0.063 A 
ENDROOT
BRANCH   6   7
ATOM      7  C   UNL     1      -4.749  -0.803 -26.341  1.00  0.00     0.335 C 
ATOM      8  O   UNL     1      -5.255  -1.803 -25.863  1.00  0.00    -0.246 OA
BRANCH   7   9
ATOM      9  O   UNL     1      -4.485   0.313 -25.629  1.00  0.00    -0.478 OA
ATOM     10  H   UNL     1      -4.125   0.157 -24.736  1.00  0.00     0.297 HD
ENDBRANCH   7   9
ENDBRANCH   6   7
BRANCH   3  11
ATOM     11  O   UNL     1      -3.047  -0.596 -31.703  1.00  0.00    -0.504 OA
ATOM     12  H   UNL     1      -3.476   0.177 -32.108  1.00  0.00     0.293 HD
ENDBRANCH   3  11
BRANCH   4  13
ATOM     13  O   UNL     1      -3.727   1.689 -30.416  1.00  0.00    -0.504 OA
ATOM     14  H   UNL     1      -3.748   1.447 -31.364  1.00  0.00     0.293 HD
ENDBRANCH   4  13
TORSDOF 4
ENDMDL
MODEL 10
REMARK VINA RESULT:      -5.3     12.817     14.809
REMARK SMILES O=C(O)c1ccc(O)c(O)c1
REMARK SMILES IDX 5 1 6 2 7 3 9 4 11 5 4 6 2 7 1 8 3 9 8 11 10 13
REMARK H PARENT 3 10 8 12 10 14
ROOT
ATOM      1  C   UNL     1      -8.142  -0.809 -31.796  1.00  0.00     0.020 A 
ATOM      2  C   UNL     1      -9.459  -1.194 -32.066  1.00  0.00     0.051 A 
ATOM      3  C   UNL     1     -10.368  -0.231 -32.487  1.00  0.00     0.157 A 
ATOM      4  C   UNL     1      -9.976   1.099 -32.626  1.00  0.00     0.158 A 
ATOM      5  C   UNL     1      -8.673   1.496 -32.356  1.00  0.00     0.065 A 
ATOM      6  C   UNL     1      -7.746   0.529 -31.954  1.00  0.00     0.063 A 
ENDROOT
BRANCH   6   7
ATOM      7  C   UNL     1      -6.340   0.883 -31.650  1.00  0.00     0.335 C 
ATOM      8  O   UNL     1      -5.965   2.034 -31.510  1.00  0.00    -0.246 OA
BRANCH   7   9
ATOM      9  O   UNL     1      -5.537  -0.188 -31.482  1.00  0.00    -0.478 OA
ATOM     10  H   UNL     1      -4.963  -0.397 -32.243  1.00  0.00     0.297 HD
ENDBRANCH   7   9
ENDBRANCH   6   7
BRANCH   3  11
ATOM     11  O   UNL     1     -11.670  -0.540 -32.769  1.00  0.00    -0.504 OA
ATOM     12  H   UNL     1     -12.202  -0.384 -31.971  1.00  0.00     0.293 HD
ENDBRANCH   3  11
BRANCH   4  13
ATOM     13  O   UNL     1     -10.880   2.038 -33.031  1.00  0.00    -0.504 OA
ATOM     14  H   UNL     1     -11.402   2.243 -32.228  1.00  0.00     0.293 HD
ENDBRANCH   4  13
TORSDOF 4
ENDMDL
