MODEL 1
REMARK VINA RESULT:      -6.0      0.000      0.000
REMARK SMILES C=Cc1ccc(OC)cc1C(=O)O
REMARK SMILES IDX 6 1 9 2 10 3 3 4 4 5 5 6 7 7 8 8 11 9 12 10 13 11 2 13 1 14
REMARK H PARENT 13 12
ROOT
ATOM      1  C   UNL     1      -5.869  -2.141 -28.934  1.00  0.00     0.119 A 
ATOM      2  C   UNL     1      -5.385  -1.484 -30.062  1.00  0.00     0.062 A 
ATOM      3  C   UNL     1      -4.174  -0.772 -30.000  1.00  0.00     0.070 A 
ATOM      4  C   UNL     1      -3.441  -0.689 -28.801  1.00  0.00    -0.011 A 
ATOM      5  C   UNL     1      -3.948  -1.350 -27.674  1.00  0.00     0.013 A 
ATOM      6  C   UNL     1      -5.142  -2.075 -27.745  1.00  0.00     0.047 A 
ENDROOT
BRANCH   1   7
ATOM      7  O   UNL     1      -7.022  -2.872 -28.860  1.00  0.00    -0.497 OA
ATOM      8  C   UNL     1      -7.808  -2.959 -30.043  1.00  0.00     0.278 C 
ENDBRANCH   1   7
BRANCH   3   9
ATOM      9  C   UNL     1      -3.736  -0.125 -31.259  1.00  0.00     0.336 C 
ATOM     10  O   UNL     1      -4.213   0.920 -31.663  1.00  0.00    -0.246 OA
BRANCH   9  11
ATOM     11  O   UNL     1      -2.845  -0.859 -31.957  1.00  0.00    -0.478 OA
ATOM     12  H   UNL     1      -2.503  -1.640 -31.481  1.00  0.00     0.297 HD
ENDBRANCH   9  11
ENDBRANCH   3   9
BRANCH   4  13
ATOM     13  C   UNL     1      -2.224   0.126 -28.676  1.00  0.00     0.001 C 
ATOM     14  C   UNL     1      -2.099   1.147 -27.817  1.00  0.00     0.009 C 
ENDBRANCH   4  13
TORSDOF 4
ENDMDL
MODEL 2
REMARK VINA RESULT:      -5.9      2.548      3.547
REMARK SMILES C=Cc1ccc(OC)cc1C(=O)O
REMARK SMILES IDX 6 1 9 2 10 3 3 4 4 5 5 6 7 7 8 8 11 9 12 10 13 11 2 13 1 14
REMARK H PARENT 13 12
ROOT
ATOM      1  C   UNL     1      -4.986  -1.302 -26.330  1.00  0.00     0.119 A 
ATOM      2  C   UNL     1      -4.219  -0.152 -26.508  1.00  0.00     0.062 A 
ATOM      3  C   UNL     1      -3.533   0.061 -27.716  1.00  0.00     0.070 A 
ATOM      4  C   UNL     1      -3.586  -0.886 -28.757  1.00  0.00    -0.011 A 
ATOM      5  C   UNL     1      -4.355  -2.041 -28.558  1.00  0.00     0.013 A 
ATOM      6  C   UNL     1      -5.054  -2.238 -27.362  1.00  0.00     0.047 A 
ENDROOT
BRANCH   1   7
ATOM      7  O   UNL     1      -5.705  -1.626 -25.215  1.00  0.00    -0.497 OA
ATOM      8  C   UNL     1      -5.971  -0.577 -24.291  1.00  0.00     0.278 C 
ENDBRANCH   1   7
BRANCH   3   9
ATOM      9  C   UNL     1      -2.763   1.322 -27.812  1.00  0.00     0.336 C 
ATOM     10  O   UNL     1      -3.260   2.372 -28.178  1.00  0.00    -0.246 OA
BRANCH   9  11
ATOM     11  O   UNL     1      -1.446   1.166 -27.560  1.00  0.00    -0.478 OA
ATOM     12  H   UNL     1      -0.918   1.982 -27.653  1.00  0.00     0.297 HD
ENDBRANCH   9  11
ENDBRANCH   3   9
BRANCH   4  13
ATOM     13  C   UNL     1      -2.804  -0.742 -29.994  1.00  0.00     0.001 C 
ATOM     14  C   UNL     1      -3.308  -0.266 -31.140  1.00  0.00     0.009 C 
ENDBRANCH   4  13
TORSDOF 4
ENDMDL
MODEL 3
REMARK VINA RESULT:      -5.6      3.964      6.461
REMARK SMILES C=Cc1ccc(OC)cc1C(=O)O
REMARK SMILES IDX 6 1 9 2 10 3 3 4 4 5 5 6 7 7 8 8 11 9 12 10 13 11 2 13 1 14
REMARK H PARENT 13 12
ROOT
ATOM      1  C   UNL     1      -6.701   0.836 -32.263  1.00  0.00     0.119 A 
ATOM      2  C   UNL     1      -7.960   1.042 -32.821  1.00  0.00     0.062 A 
ATOM      3  C   UNL     1      -9.033   0.203 -32.475  1.00  0.00     0.070 A 
ATOM      4  C   UNL     1      -8.856  -0.871 -31.583  1.00  0.00    -0.011 A 
ATOM      5  C   UNL     1      -7.580  -1.069 -31.037  1.00  0.00     0.013 A 
ATOM      6  C   UNL     1      -6.520  -0.218 -31.367  1.00  0.00     0.047 A 
ENDROOT
BRANCH   1   7
ATOM      7  O   UNL     1      -5.580   1.580 -32.506  1.00  0.00    -0.497 OA
ATOM      8  C   UNL     1      -4.388   1.188 -31.835  1.00  0.00     0.278 C 
ENDBRANCH   1   7
BRANCH   3   9
ATOM      9  C   UNL     1     -10.335   0.519 -33.108  1.00  0.00     0.336 C 
ATOM     10  O   UNL     1     -10.835  -0.179 -33.972  1.00  0.00    -0.246 OA
BRANCH   9  11
ATOM     11  O   UNL     1     -10.849   1.703 -32.712  1.00  0.00    -0.478 OA
ATOM     12  H   UNL     1     -10.189   2.413 -32.600  1.00  0.00     0.297 HD
ENDBRANCH   9  11
ENDBRANCH   3   9
BRANCH   4  13
ATOM     13  C   UNL     1      -9.931  -1.826 -31.275  1.00  0.00     0.001 C 
ATOM     14  C   UNL     1      -9.715  -3.049 -30.774  1.00  0.00     0.009 C 
ENDBRANCH   4  13
TORSDOF 4
ENDMDL
MODEL 4
REMARK VINA RESULT:      -5.5      5.057      5.991
REMARK SMILES C=Cc1ccc(OC)cc1C(=O)O
REMARK SMILES IDX 6 1 9 2 10 3 3 4 4 5 5 6 7 7 8 8 11 9 12 10 13 11 2 13 1 14
REMARK H PARENT 13 12
ROOT
ATOM      1  C   UNL     1      -9.766  -0.425 -29.396  1.00  0.00     0.119 A 
ATOM      2  C   UNL     1     -10.451  -0.167 -30.581  1.00  0.00     0.062 A 
ATOM      3  C   UNL     1      -9.814   0.515 -31.632  1.00  0.00     0.070 A 
ATOM      4  C   UNL     1      -8.488   0.970 -31.503  1.00  0.00    -0.011 A 
ATOM      5  C   UNL     1      -7.817   0.709 -30.301  1.00  0.00     0.013 A 
ATOM      6  C   UNL     1      -8.447   0.011 -29.266  1.00  0.00     0.047 A 
ENDROOT
BRANCH   1   7
ATOM      7  O   UNL     1     -10.263  -1.082 -28.306  1.00  0.00    -0.497 OA
ATOM      8  C   UNL     1      -9.563  -2.246 -27.879  1.00  0.00     0.278 C 
ENDBRANCH   1   7
BRANCH   3   9
ATOM      9  C   UNL     1     -10.622   0.722 -32.856  1.00  0.00     0.336 C 
ATOM     10  O   UNL     1     -10.798  -0.152 -33.686  1.00  0.00    -0.246 OA
BRANCH   9  11
ATOM     11  O   UNL     1     -11.047   1.994 -33.009  1.00  0.00    -0.478 OA
ATOM     12  H   UNL     1     -11.800   2.098 -33.622  1.00  0.00     0.297 HD
ENDBRANCH   9  11
ENDBRANCH   3   9
BRANCH   4  13
ATOM     13  C   UNL     1      -7.825   1.771 -32.543  1.00  0.00     0.001 C 
ATOM     14  C   UNL     1      -7.120   1.242 -33.551  1.00  0.00     0.009 C 
ENDBRANCH   4  13
TORSDOF 4
ENDMDL
MODEL 5
REMARK VINA RESULT:      -5.4      2.274      3.025
REMARK SMILES C=Cc1ccc(OC)cc1C(=O)O
REMARK SMILES IDX 6 1 9 2 10 3 3 4 4 5 5 6 7 7 8 8 11 9 12 10 13 11 2 13 1 14
REMARK H PARENT 13 12
ROOT
ATOM      1  C   UNL     1      -7.313  -0.595 -31.536  1.00  0.00     0.119 A 
ATOM      2  C   UNL     1      -6.123   0.126 -31.473  1.00  0.00     0.062 A 
ATOM      3  C   UNL     1      -5.095  -0.278 -30.603  1.00  0.00     0.070 A 
ATOM      4  C   UNL     1      -5.254  -1.397 -29.764  1.00  0.00    -0.011 A 
ATOM      5  C   UNL     1      -6.461  -2.106 -29.834  1.00  0.00     0.013 A 
ATOM      6  C   UNL     1      -7.472  -1.714 -30.717  1.00  0.00     0.047 A 
ENDROOT
BRANCH   1   7
ATOM      7  O   UNL     1      -8.382  -0.317 -32.340  1.00  0.00    -0.497 OA
ATOM      8  C   UNL     1      -8.147   0.534 -33.456  1.00  0.00     0.278 C 
ENDBRANCH   1   7
BRANCH   3   9
ATOM      9  C   UNL     1      -3.864   0.545 -30.626  1.00  0.00     0.336 C 
ATOM     10  O   UNL     1      -3.649   1.433 -29.822  1.00  0.00    -0.246 OA
BRANCH   9  11
ATOM     11  O   UNL     1      -3.066   0.285 -31.684  1.00  0.00    -0.478 OA
ATOM     12  H   UNL     1      -3.479  -0.268 -32.375  1.00  0.00     0.297 HD
ENDBRANCH   9  11
ENDBRANCH   3   9
BRANCH   4  13
ATOM     13  C   UNL     1      -4.240  -1.789 -28.773  1.00  0.00     0.001 C 
ATOM     14  C   UNL     1      -4.319  -1.484 -27.472  1.00  0.00     0.009 C 
ENDBRANCH   4  13
TORSDOF 4
ENDMDL
MODEL 6
REMARK VINA RESULT:      -5.4      3.411      5.997
REMARK SMILES C=Cc1ccc(OC)cc1C(=O)O
REMARK SMILES IDX 6 1 9 2 10 3 3 4 4 5 5 6 7 7 8 8 11 9 12 10 13 11 2 13 1 14
REMARK H PARENT 13 12
ROOT
ATOM      1  C   UNL     1      -5.731   0.175 -31.184  1.00  0.00     0.119 A 
ATOM      2  C   UNL     1      -6.774  -0.721 -30.964  1.00  0.00     0.062 A 
ATOM      3  C   UNL     1      -7.939  -0.657 -31.749  1.00  0.00     0.070 A 
ATOM      4  C   UNL     1      -8.085   0.320 -32.751  1.00  0.00    -0.011 A 
ATOM      5  C   UNL     1      -7.029   1.219 -32.954  1.00  0.00     0.013 A 
ATOM      6  C   UNL     1      -5.863   1.139 -32.185  1.00  0.00     0.047 A 
ENDROOT
BRANCH   1   7
ATOM      7  O   UNL     1      -4.548   0.218 -30.501  1.00  0.00    -0.497 OA
ATOM      8  C   UNL     1      -3.388  -0.232 -31.192  1.00  0.00     0.278 C 
ENDBRANCH   1   7
BRANCH   3   9
ATOM      9  C   UNL     1      -8.980  -1.667 -31.448  1.00  0.00     0.336 C 
ATOM     10  O   UNL     1     -10.087  -1.370 -31.038  1.00  0.00    -0.246 OA
BRANCH   9  11
ATOM     11  O   UNL     1      -8.544  -2.939 -31.570  1.00  0.00    -0.478 OA
ATOM     12  H   UNL     1      -8.218  -3.170 -32.460  1.00  0.00     0.297 HD
ENDBRANCH   9  11
ENDBRANCH   3   9
BRANCH   4  13
ATOM     13  C   UNL     1      -9.327   0.477 -33.524  1.00  0.00     0.001 C 
ATOM     14  C   UNL     1     -10.216   1.454 -33.308  1.00  0.00     0.009 C 
ENDBRANCH   4  13
TORSDOF 4
ENDMDL
MODEL 7
REMARK VINA RESULT:      -5.3      2.614      3.467
REMARK SMILES C=Cc1ccc(OC)cc1C(=O)O
REMARK SMILES IDX 6 1 9 2 10 3 3 4 4 5 5 6 7 7 8 8 11 9 12 10 13 11 2 13 1 14
REMARK H PARENT 13 12
ROOT
ATOM      1  C   UNL     1      -6.369   1.700 -31.327  1.00  0.00     0.119 A 
ATOM      2  C   UNL     1      -5.339   0.801 -31.591  1.00  0.00     0.062 A 
ATOM      3  C   UNL     1      -4.340   0.567 -30.629  1.00  0.00     0.070 A 
ATOM      4  C   UNL     1      -4.346   1.247 -29.397  1.00  0.00    -0.011 A 
ATOM      5  C   UNL     1      -5.387   2.154 -29.151  1.00  0.00     0.013 A 
ATOM      6  C   UNL     1      -6.390   2.368 -30.102  1.00  0.00     0.047 A 
ENDROOT
BRANCH   1   7
ATOM      7  O   UNL     1      -7.401   2.011 -32.166  1.00  0.00    -0.497 OA
ATOM      8  C   UNL     1      -7.565   1.193 -33.319  1.00  0.00     0.278 C 
ENDBRANCH   1   7
BRANCH   3   9
ATOM      9  C   UNL     1      -3.301  -0.421 -30.999  1.00  0.00     0.336 C 
ATOM     10  O   UNL     1      -3.409  -1.612 -30.766  1.00  0.00    -0.246 OA
BRANCH   9  11
ATOM     11  O   UNL     1      -2.187   0.141 -31.516  1.00  0.00    -0.478 OA
ATOM     12  H   UNL     1      -2.277   1.089 -31.732  1.00  0.00     0.297 HD
ENDBRANCH   9  11
ENDBRANCH   3   9
BRANCH   4  13
ATOM     13  C   UNL     1      -3.266   1.100 -28.409  1.00  0.00     0.001 C 
ATOM     14  C   UNL     1      -3.430   0.524 -27.212  1.00  0.00     0.009 C 
ENDBRANCH   4  13
TORSDOF 4
ENDMDL
MODEL 8
REMARK VINA RESULT:      -5.3      4.669      5.502
REMARK SMILES C=Cc1ccc(OC)cc1C(=O)O
REMARK SMILES IDX 6 1 9 2 10 3 3 4 4 5 5 6 7 7 8 8 11 9 12 10 13 11 2 13 1 14
REMARK H PARENT 13 12
ROOT
ATOM      1  C   UNL     1      -9.256  -2.388 -30.541  1.00  0.00     0.119 A 
ATOM      2  C   UNL     1     -10.028  -1.561 -31.353  1.00  0.00     0.062 A 
ATOM      3  C   UNL     1      -9.428  -0.509 -32.066  1.00  0.00     0.070 A 
ATOM      4  C   UNL     1      -8.047  -0.255 -31.958  1.00  0.00    -0.011 A 
ATOM      5  C   UNL     1      -7.287  -1.092 -31.130  1.00  0.00     0.013 A 
ATOM      6  C   UNL     1      -7.885  -2.151 -30.439  1.00  0.00     0.047 A 
ENDROOT
BRANCH   1   7
ATOM      7  O   UNL     1      -9.711  -3.445 -29.804  1.00  0.00    -0.497 OA
ATOM      8  C   UNL     1      -9.059  -4.696 -29.999  1.00  0.00     0.278 C 
ENDBRANCH   1   7
BRANCH   3   9
ATOM      9  C   UNL     1     -10.332   0.300 -32.916  1.00  0.00     0.336 C 
ATOM     10  O   UNL     1     -10.910   1.291 -32.507  1.00  0.00    -0.246 OA
BRANCH   9  11
ATOM     11  O   UNL     1     -10.533  -0.231 -34.141  1.00  0.00    -0.478 OA
ATOM     12  H   UNL     1     -10.454   0.407 -34.875  1.00  0.00     0.297 HD
ENDBRANCH   9  11
ENDBRANCH   3   9
BRANCH   4  13
ATOM     13  C   UNL     1      -7.403   0.895 -32.612  1.00  0.00     0.001 C 
ATOM     14  C   UNL     1      -7.062   2.018 -31.969  1.00  0.00     0.009 C 
ENDBRANCH   4  13
TORSDOF 4
ENDMDL
MODEL 9
REMARK VINA RESULT:      -5.2      2.704      4.644
REMARK SMILES C=Cc1ccc(OC)cc1C(=O)O
REMARK SMILES IDX 6 1 9 2 10 3 3 4 4 5 5 6 7 7 8 8 11 9 12 10 13 11 2 13 1 14
REMARK H PARENT 13 12
ROOT
ATOM      1  C   UNL     1      -4.411   3.561 -30.048  1.00  0.00     0.119 A 
ATOM      2  C   UNL     1      -4.579   2.393 -30.789  1.00  0.00     0.062 A 
ATOM      3  C   UNL     1      -4.151   1.159 -30.270  1.00  0.00     0.070 A 
ATOM      4  C   UNL     1      -3.527   1.078 -29.011  1.00  0.00    -0.011 A 
ATOM      5  C   UNL     1      -3.358   2.264 -28.283  1.00  0.00     0.013 A 
ATOM      6  C   UNL     1      -3.805   3.487 -28.793  1.00  0.00     0.047 A 
ENDROOT
BRANCH   1   7
ATOM      7  O   UNL     1      -4.787   4.818 -30.429  1.00  0.00    -0.497 OA
ATOM      8  C   UNL     1      -3.793   5.834 -30.374  1.00  0.00     0.278 C 
ENDBRANCH   1   7
BRANCH   3   9
ATOM      9  C   UNL     1      -4.393  -0.025 -31.128  1.00  0.00     0.336 C 
ATOM     10  O   UNL     1      -5.431  -0.661 -31.096  1.00  0.00    -0.246 OA
BRANCH   9  11
ATOM     11  O   UNL     1      -3.317  -0.386 -31.859  1.00  0.00    -0.478 OA
ATOM     12  H   UNL     1      -2.616   0.293 -31.908  1.00  0.00     0.297 HD
ENDBRANCH   9  11
ENDBRANCH   3   9
BRANCH   4  13
ATOM     13  C   UNL     1      -2.979  -0.180 -28.482  1.00  0.00     0.001 C 
ATOM     14  C   UNL     1      -3.711  -1.089 -27.824  1.00  0.00     0.009 C 
ENDBRANCH   4  13
TORSDOF 4
ENDMDL
MODEL 10
REMARK VINA RESULT:      -5.2      2.544      4.489
REMARK SMILES C=Cc1ccc(OC)cc1C(=O)O
REMARK SMILES IDX 6 1 9 2 10 3 3 4 4 5 5 6 7 7 8 8 11 9 12 10 13 11 2 13 1 14
REMARK H PARENT 13 12
ROOT
ATOM      1  C   UNL     1      -8.029  -3.043 -30.188  1.00  0.00     0.119 A 
ATOM      2  C   UNL     1      -6.882  -2.262 -30.074  1.00  0.00     0.062 A 
ATOM      3  C   UNL     1      -6.754  -1.078 -30.821  1.00  0.00     0.070 A 
ATOM      4  C   UNL     1      -7.764  -0.672 -31.714  1.00  0.00    -0.011 A 
ATOM      5  C   UNL     1      -8.908  -1.474 -31.823  1.00  0.00     0.013 A 
ATOM      6  C   UNL     1      -9.040  -2.639 -31.061  1.00  0.00     0.047 A 
ENDROOT
BRANCH   1   7
ATOM      7  O   UNL     1      -8.283  -4.205 -29.516  1.00  0.00    -0.497 OA
ATOM      8  C   UNL     1      -9.446  -4.931 -29.897  1.00  0.00     0.278 C 
ENDBRANCH   1   7
BRANCH   3   9
ATOM      9  C   UNL     1      -5.505  -0.310 -30.612  1.00  0.00     0.336 C 
ATOM     10  O   UNL     1      -4.479  -0.540 -31.226  1.00  0.00    -0.246 OA
BRANCH   9  11
ATOM     11  O   UNL     1      -5.590   0.587 -29.606  1.00  0.00    -0.478 OA
ATOM     12  H   UNL     1      -6.135   0.295 -28.851  1.00  0.00     0.297 HD
ENDBRANCH   9  11
ENDBRANCH   3   9
BRANCH   4  13
ATOM     13  C   UNL     1      -7.621   0.506 -32.583  1.00  0.00     0.001 C 
ATOM     14  C   UNL     1      -8.180   0.606 -33.796  1.00  0.00     0.009 C 
ENDBRANCH   4  13
TORSDOF 4
ENDMDL
