MODEL 1
REMARK VINA RESULT:      -6.0      0.000      0.000
REMARK SMILES C[C@@H](O)[C@H]1CC[C@@H](C)CC1
REMARK SMILES IDX 2 1 1 2 4 3 7 4 6 5 9 6 5 7 10 8 8 9 3 10
REMARK H PARENT 3 11
ROOT
ATOM      1  C   UNL     1       0.222 -11.248 -25.612  1.00  0.00     0.114 C 
ATOM      2  C   UNL     1       0.572 -12.729 -25.510  1.00  0.00     0.038 C 
ENDROOT
BRANCH   1   3
ATOM      3  C   UNL     1       0.280 -10.687 -27.055  1.00  0.00     0.017 C 
ATOM      4  C   UNL     1      -2.277  -9.198 -27.519  1.00  0.00    -0.014 C 
ATOM      5  C   UNL     1      -1.145  -8.598 -26.674  1.00  0.00     0.004 C 
ATOM      6  C   UNL     1      -2.214 -10.732 -27.560  1.00  0.00     0.004 C 
ATOM      7  C   UNL     1       0.227  -9.145 -27.073  1.00  0.00     0.006 C 
ATOM      8  C   UNL     1      -0.829 -11.227 -27.972  1.00  0.00     0.006 C 
ATOM      9  C   UNL     1      -3.638  -8.734 -27.000  1.00  0.00     0.007 C 
ENDBRANCH   1   3
BRANCH   1  10
ATOM     10  O   UNL     1       1.140 -10.526 -24.786  1.00  0.00    -0.393 OA
ATOM     11  H   UNL     1       0.904  -9.584 -24.833  1.00  0.00     0.210 HD
ENDBRANCH   1  10
TORSDOF 2
ENDMDL
MODEL 2
REMARK VINA RESULT:      -5.8     14.789     15.905
REMARK SMILES C[C@@H](O)[C@H]1CC[C@@H](C)CC1
REMARK SMILES IDX 2 1 1 2 4 3 7 4 6 5 9 6 5 7 10 8 8 9 3 10
REMARK H PARENT 3 11
ROOT
ATOM      1  C   UNL     1       9.187  -1.076 -16.199  1.00  0.00     0.114 C 
ATOM      2  C   UNL     1      10.400  -0.305 -15.690  1.00  0.00     0.038 C 
ENDROOT
BRANCH   1   3
ATOM      3  C   UNL     1       7.974  -0.179 -16.550  1.00  0.00     0.017 C 
ATOM      4  C   UNL     1       6.631  -1.412 -18.927  1.00  0.00    -0.014 C 
ATOM      5  C   UNL     1       6.463  -2.000 -17.518  1.00  0.00     0.004 C 
ATOM      6  C   UNL     1       7.928  -0.601 -19.059  1.00  0.00     0.004 C 
ATOM      7  C   UNL     1       6.640  -0.945 -16.426  1.00  0.00     0.006 C 
ATOM      8  C   UNL     1       8.053   0.445 -17.953  1.00  0.00     0.006 C 
ATOM      9  C   UNL     1       6.585  -2.520 -19.979  1.00  0.00     0.007 C 
ENDBRANCH   1   3
BRANCH   1  10
ATOM     10  O   UNL     1       8.808  -2.009 -15.183  1.00  0.00    -0.393 OA
ATOM     11  H   UNL     1       9.621  -2.385 -14.805  1.00  0.00     0.210 HD
ENDBRANCH   1  10
TORSDOF 2
ENDMDL
MODEL 3
REMARK VINA RESULT:      -5.5     13.813     15.055
REMARK SMILES C[C@@H](O)[C@H]1CC[C@@H](C)CC1
REMARK SMILES IDX 2 1 1 2 4 3 7 4 6 5 9 6 5 7 10 8 8 9 3 10
REMARK H PARENT 3 11
ROOT
ATOM      1  C   UNL     1       6.965  -2.612 -19.560  1.00  0.00     0.114 C 
ATOM      2  C   UNL     1       5.956  -3.068 -20.608  1.00  0.00     0.038 C 
ENDROOT
BRANCH   1   3
ATOM      3  C   UNL     1       6.797  -1.133 -19.129  1.00  0.00     0.017 C 
ATOM      4  C   UNL     1       8.161  -0.834 -16.479  1.00  0.00    -0.014 C 
ATOM      5  C   UNL     1       8.962  -0.914 -17.786  1.00  0.00     0.004 C 
ATOM      6  C   UNL     1       6.780  -1.492 -16.610  1.00  0.00     0.004 C 
ATOM      7  C   UNL     1       8.158  -0.419 -18.989  1.00  0.00     0.006 C 
ATOM      8  C   UNL     1       6.014  -0.958 -17.818  1.00  0.00     0.006 C 
ATOM      9  C   UNL     1       8.946  -1.465 -15.329  1.00  0.00     0.007 C 
ENDBRANCH   1   3
BRANCH   1  10
ATOM     10  O   UNL     1       8.274  -2.800 -20.106  1.00  0.00    -0.393 OA
ATOM     11  H   UNL     1       8.172  -3.122 -21.018  1.00  0.00     0.210 HD
ENDBRANCH   1  10
TORSDOF 2
ENDMDL
MODEL 4
REMARK VINA RESULT:      -5.3      2.262      4.243
REMARK SMILES C[C@@H](O)[C@H]1CC[C@@H](C)CC1
REMARK SMILES IDX 2 1 1 2 4 3 7 4 6 5 9 6 5 7 10 8 8 9 3 10
REMARK H PARENT 3 11
ROOT
ATOM      1  C   UNL     1      -3.865  -9.982 -27.046  1.00  0.00     0.114 C 
ATOM      2  C   UNL     1      -4.927  -8.908 -26.839  1.00  0.00     0.038 C 
ENDROOT
BRANCH   1   3
ATOM      3  C   UNL     1      -2.736  -9.568 -28.023  1.00  0.00     0.017 C 
ATOM      4  C   UNL     1      -0.136 -10.093 -26.629  1.00  0.00    -0.014 C 
ATOM      5  C   UNL     1      -0.964 -11.235 -27.234  1.00  0.00     0.004 C 
ATOM      6  C   UNL     1      -1.002  -8.870 -26.296  1.00  0.00     0.004 C 
ATOM      7  C   UNL     1      -1.836 -10.765 -28.399  1.00  0.00     0.006 C 
ATOM      8  C   UNL     1      -1.845  -8.433 -27.492  1.00  0.00     0.006 C 
ATOM      9  C   UNL     1       0.612 -10.573 -25.386  1.00  0.00     0.007 C 
ENDBRANCH   1   3
BRANCH   1  10
ATOM     10  O   UNL     1      -4.519 -11.150 -27.547  1.00  0.00    -0.393 OA
ATOM     11  H   UNL     1      -5.077 -11.508 -26.834  1.00  0.00     0.210 HD
ENDBRANCH   1  10
TORSDOF 2
ENDMDL
MODEL 5
REMARK VINA RESULT:      -5.1     10.055     11.901
REMARK SMILES C[C@@H](O)[C@H]1CC[C@@H](C)CC1
REMARK SMILES IDX 2 1 1 2 4 3 7 4 6 5 9 6 5 7 10 8 8 9 3 10
REMARK H PARENT 3 11
ROOT
ATOM      1  C   UNL     1      -3.897   2.073 -29.313  1.00  0.00     0.114 C 
ATOM      2  C   UNL     1      -3.859   3.511 -28.809  1.00  0.00     0.038 C 
ENDROOT
BRANCH   1   3
ATOM      3  C   UNL     1      -2.718   1.201 -28.815  1.00  0.00     0.017 C 
ATOM      4  C   UNL     1      -3.881  -1.397 -27.883  1.00  0.00    -0.014 C 
ATOM      5  C   UNL     1      -3.712  -1.087 -29.377  1.00  0.00     0.004 C 
ATOM      6  C   UNL     1      -3.971  -0.120 -27.037  1.00  0.00     0.004 C 
ATOM      7  C   UNL     1      -2.576  -0.097 -29.638  1.00  0.00     0.006 C 
ATOM      8  C   UNL     1      -2.810   0.830 -27.326  1.00  0.00     0.006 C 
ATOM      9  C   UNL     1      -5.109  -2.277 -27.654  1.00  0.00     0.007 C 
ENDBRANCH   1   3
BRANCH   1  10
ATOM     10  O   UNL     1      -3.885   2.112 -30.743  1.00  0.00    -0.393 OA
ATOM     11  H   UNL     1      -4.688   2.578 -31.035  1.00  0.00     0.210 HD
ENDBRANCH   1  10
TORSDOF 2
ENDMDL
MODEL 6
REMARK VINA RESULT:      -5.1      9.841     11.802
REMARK SMILES C[C@@H](O)[C@H]1CC[C@@H](C)CC1
REMARK SMILES IDX 2 1 1 2 4 3 7 4 6 5 9 6 5 7 10 8 8 9 3 10
REMARK H PARENT 3 11
ROOT
ATOM      1  C   UNL     1      -4.195   0.968 -30.773  1.00  0.00     0.114 C 
ATOM      2  C   UNL     1      -4.999   2.231 -31.063  1.00  0.00     0.038 C 
ENDROOT
BRANCH   1   3
ATOM      3  C   UNL     1      -3.294   1.072 -29.517  1.00  0.00     0.017 C 
ATOM      4  C   UNL     1      -4.093  -1.153 -27.678  1.00  0.00    -0.014 C 
ATOM      5  C   UNL     1      -3.235  -1.414 -28.923  1.00  0.00     0.004 C 
ATOM      6  C   UNL     1      -4.933   0.125 -27.817  1.00  0.00     0.004 C 
ATOM      7  C   UNL     1      -2.420  -0.187 -29.333  1.00  0.00     0.006 C 
ATOM      8  C   UNL     1      -4.074   1.323 -28.217  1.00  0.00     0.006 C 
ATOM      9  C   UNL     1      -4.993  -2.354 -27.385  1.00  0.00     0.007 C 
ENDBRANCH   1   3
BRANCH   1  10
ATOM     10  O   UNL     1      -3.382   0.696 -31.918  1.00  0.00    -0.393 OA
ATOM     11  H   UNL     1      -3.183  -0.256 -31.922  1.00  0.00     0.210 HD
ENDBRANCH   1  10
TORSDOF 2
ENDMDL
MODEL 7
REMARK VINA RESULT:      -5.1      9.730     10.957
REMARK SMILES C[C@@H](O)[C@H]1CC[C@@H](C)CC1
REMARK SMILES IDX 2 1 1 2 4 3 7 4 6 5 9 6 5 7 10 8 8 9 3 10
REMARK H PARENT 3 11
ROOT
ATOM      1  C   UNL     1      -2.819   0.641 -27.999  1.00  0.00     0.114 C 
ATOM      2  C   UNL     1      -3.631   0.327 -26.747  1.00  0.00     0.038 C 
ENDROOT
BRANCH   1   3
ATOM      3  C   UNL     1      -2.605  -0.578 -28.931  1.00  0.00     0.017 C 
ATOM      4  C   UNL     1      -5.031  -0.782 -30.676  1.00  0.00    -0.014 C 
ATOM      5  C   UNL     1      -3.948   0.275 -30.933  1.00  0.00     0.004 C 
ATOM      6  C   UNL     1      -5.044  -1.248 -29.213  1.00  0.00     0.004 C 
ATOM      7  C   UNL     1      -2.577  -0.165 -30.417  1.00  0.00     0.006 C 
ATOM      8  C   UNL     1      -3.656  -1.685 -28.749  1.00  0.00     0.006 C 
ATOM      9  C   UNL     1      -6.406  -0.248 -31.078  1.00  0.00     0.007 C 
ENDBRANCH   1   3
BRANCH   1  10
ATOM     10  O   UNL     1      -1.548   1.143 -27.577  1.00  0.00    -0.393 OA
ATOM     11  H   UNL     1      -0.929   1.049 -28.322  1.00  0.00     0.210 HD
ENDBRANCH   1  10
TORSDOF 2
ENDMDL
MODEL 8
REMARK VINA RESULT:      -5.0      9.441     10.664
REMARK SMILES C[C@@H](O)[C@H]1CC[C@@H](C)CC1
REMARK SMILES IDX 2 1 1 2 4 3 7 4 6 5 9 6 5 7 10 8 8 9 3 10
REMARK H PARENT 3 11
ROOT
ATOM      1  C   UNL     1      -6.280  -1.754 -28.401  1.00  0.00     0.114 C 
ATOM      2  C   UNL     1      -6.551  -2.474 -29.718  1.00  0.00     0.038 C 
ENDROOT
BRANCH   1   3
ATOM      3  C   UNL     1      -4.957  -2.178 -27.715  1.00  0.00     0.017 C 
ATOM      4  C   UNL     1      -3.192   0.241 -27.646  1.00  0.00    -0.014 C 
ATOM      5  C   UNL     1      -4.367   0.080 -26.671  1.00  0.00     0.004 C 
ATOM      6  C   UNL     1      -3.393  -0.579 -28.928  1.00  0.00     0.004 C 
ATOM      7  C   UNL     1      -4.708  -1.388 -26.413  1.00  0.00     0.006 C 
ATOM      8  C   UNL     1      -3.721  -2.038 -28.618  1.00  0.00     0.006 C 
ATOM      9  C   UNL     1      -2.974   1.716 -27.984  1.00  0.00     0.007 C 
ENDBRANCH   1   3
BRANCH   1  10
ATOM     10  O   UNL     1      -7.376  -2.026 -27.523  1.00  0.00    -0.393 OA
ATOM     11  H   UNL     1      -7.763  -2.879 -27.785  1.00  0.00     0.210 HD
ENDBRANCH   1  10
TORSDOF 2
ENDMDL
MODEL 9
REMARK VINA RESULT:      -5.0      9.962     11.090
REMARK SMILES C[C@@H](O)[C@H]1CC[C@@H](C)CC1
REMARK SMILES IDX 2 1 1 2 4 3 7 4 6 5 9 6 5 7 10 8 8 9 3 10
REMARK H PARENT 3 11
ROOT
ATOM      1  C   UNL     1      -3.313   0.986 -28.859  1.00  0.00     0.114 C 
ATOM      2  C   UNL     1      -2.229   1.132 -27.797  1.00  0.00     0.038 C 
ENDROOT
BRANCH   1   3
ATOM      3  C   UNL     1      -3.116  -0.235 -29.792  1.00  0.00     0.017 C 
ATOM      4  C   UNL     1      -5.579  -1.923 -29.559  1.00  0.00    -0.014 C 
ATOM      5  C   UNL     1      -5.574  -0.625 -30.379  1.00  0.00     0.004 C 
ATOM      6  C   UNL     1      -4.492  -1.922 -28.476  1.00  0.00     0.004 C 
ATOM      7  C   UNL     1      -4.181  -0.280 -30.908  1.00  0.00     0.006 C 
ATOM      8  C   UNL     1      -3.120  -1.583 -29.055  1.00  0.00     0.006 C 
ATOM      9  C   UNL     1      -6.955  -2.156 -28.935  1.00  0.00     0.007 C 
ENDBRANCH   1   3
BRANCH   1  10
ATOM     10  O   UNL     1      -3.321   2.183 -29.640  1.00  0.00    -0.393 OA
ATOM     11  H   UNL     1      -2.809   2.013 -30.450  1.00  0.00     0.210 HD
ENDBRANCH   1  10
TORSDOF 2
ENDMDL
MODEL 10
REMARK VINA RESULT:      -5.0      9.957     11.026
REMARK SMILES C[C@@H](O)[C@H]1CC[C@@H](C)CC1
REMARK SMILES IDX 2 1 1 2 4 3 7 4 6 5 9 6 5 7 10 8 8 9 3 10
REMARK H PARENT 3 11
ROOT
ATOM      1  C   UNL     1      -5.075  -0.366 -30.522  1.00  0.00     0.114 C 
ATOM      2  C   UNL     1      -3.926   0.211 -31.341  1.00  0.00     0.038 C 
ENDROOT
BRANCH   1   3
ATOM      3  C   UNL     1      -4.739  -1.713 -29.833  1.00  0.00     0.017 C 
ATOM      4  C   UNL     1      -4.771  -1.217 -26.879  1.00  0.00    -0.014 C 
ATOM      5  C   UNL     1      -6.073  -1.346 -27.682  1.00  0.00     0.004 C 
ATOM      6  C   UNL     1      -3.592  -0.782 -27.761  1.00  0.00     0.004 C 
ATOM      7  C   UNL     1      -5.896  -2.203 -28.937  1.00  0.00     0.006 C 
ATOM      8  C   UNL     1      -3.452  -1.673 -28.993  1.00  0.00     0.006 C 
ATOM      9  C   UNL     1      -4.954  -0.244 -25.714  1.00  0.00     0.007 C 
ENDBRANCH   1   3
BRANCH   1  10
ATOM     10  O   UNL     1      -6.187  -0.550 -31.401  1.00  0.00    -0.393 OA
ATOM     11  H   UNL     1      -7.000  -0.400 -30.888  1.00  0.00     0.210 HD
ENDBRANCH   1  10
TORSDOF 2
ENDMDL
