MODEL 1
REMARK VINA RESULT:      -6.9      0.000      0.000
REMARK SMILES O=C(O)/C=C/c1ccc(O)c(O)c1
REMARK SMILES IDX 5 1 4 2 6 3 7 4 8 5 9 6 13 7 11 8 10 9 12 11 2 13 1 14 3 15
REMARK H PARENT 10 10 12 12 3 16
ROOT
ATOM      1  C   UNL     1       6.053  -2.391 -20.588  1.00  0.00     0.016 C 
ATOM      2  C   UNL     1       5.513  -1.641 -21.562  1.00  0.00     0.094 C 
ENDROOT
BRANCH   1   3
ATOM      3  C   UNL     1       6.615  -1.850 -19.343  1.00  0.00    -0.021 A 
ATOM      4  C   UNL     1       7.808  -1.109 -19.410  1.00  0.00     0.012 A 
ATOM      5  C   UNL     1       8.377  -0.551 -18.260  1.00  0.00     0.051 A 
ATOM      6  C   UNL     1       7.741  -0.726 -17.040  1.00  0.00     0.157 A 
ATOM      7  C   UNL     1       5.979  -2.000 -18.104  1.00  0.00     0.058 A 
ATOM      8  C   UNL     1       6.551  -1.444 -16.966  1.00  0.00     0.157 A 
BRANCH   6   9
ATOM      9  O   UNL     1       8.243  -0.206 -15.878  1.00  0.00    -0.504 OA
ATOM     10  H   UNL     1       8.848   0.521 -16.109  1.00  0.00     0.293 HD
ENDBRANCH   6   9
BRANCH   8  11
ATOM     11  O   UNL     1       5.926  -1.606 -15.762  1.00  0.00    -0.504 OA
ATOM     12  H   UNL     1       6.444  -1.054 -15.142  1.00  0.00     0.293 HD
ENDBRANCH   8  11
ENDBRANCH   1   3
BRANCH   2  13
ATOM     13  C   UNL     1       4.959  -2.302 -22.760  1.00  0.00     0.328 C 
ATOM     14  O   UNL     1       4.271  -3.307 -22.741  1.00  0.00    -0.247 OA
BRANCH  13  15
ATOM     15  O   UNL     1       5.302  -1.664 -23.896  1.00  0.00    -0.478 OA
ATOM     16  H   UNL     1       6.137  -1.162 -23.860  1.00  0.00     0.297 HD
ENDBRANCH  13  15
ENDBRANCH   2  13
TORSDOF 5
ENDMDL
MODEL 2
REMARK VINA RESULT:      -6.4      0.748      1.785
REMARK SMILES O=C(O)/C=C/c1ccc(O)c(O)c1
REMARK SMILES IDX 5 1 4 2 6 3 7 4 8 5 9 6 13 7 11 8 10 9 12 11 2 13 1 14 3 15
REMARK H PARENT 10 10 12 12 3 16
ROOT
ATOM      1  C   UNL     1       5.955  -2.406 -20.672  1.00  0.00     0.016 C 
ATOM      2  C   UNL     1       5.364  -1.663 -21.621  1.00  0.00     0.094 C 
ENDROOT
BRANCH   1   3
ATOM      3  C   UNL     1       6.424  -1.877 -19.383  1.00  0.00    -0.021 A 
ATOM      4  C   UNL     1       5.936  -2.458 -18.199  1.00  0.00     0.012 A 
ATOM      5  C   UNL     1       6.365  -2.010 -16.945  1.00  0.00     0.051 A 
ATOM      6  C   UNL     1       7.296  -0.984 -16.877  1.00  0.00     0.157 A 
ATOM      7  C   UNL     1       7.377  -0.853 -19.293  1.00  0.00     0.058 A 
ATOM      8  C   UNL     1       7.796  -0.414 -18.044  1.00  0.00     0.157 A 
BRANCH   6   9
ATOM      9  O   UNL     1       7.757  -0.500 -15.684  1.00  0.00    -0.504 OA
ATOM     10  H   UNL     1       7.009  -0.461 -15.063  1.00  0.00     0.293 HD
ENDBRANCH   6   9
BRANCH   8  11
ATOM     11  O   UNL     1       8.719   0.592 -17.970  1.00  0.00    -0.504 OA
ATOM     12  H   UNL     1       9.068   0.671 -18.880  1.00  0.00     0.293 HD
ENDBRANCH   8  11
ENDBRANCH   1   3
BRANCH   2  13
ATOM     13  C   UNL     1       4.915  -2.313 -22.869  1.00  0.00     0.328 C 
ATOM     14  O   UNL     1       4.232  -3.321 -22.919  1.00  0.00    -0.247 OA
BRANCH  13  15
ATOM     15  O   UNL     1       5.348  -1.660 -23.965  1.00  0.00    -0.478 OA
ATOM     16  H   UNL     1       4.913  -0.807 -24.146  1.00  0.00     0.297 HD
ENDBRANCH  13  15
ENDBRANCH   2  13
TORSDOF 5
ENDMDL
MODEL 3
REMARK VINA RESULT:      -6.4     15.864     18.719
REMARK SMILES O=C(O)/C=C/c1ccc(O)c(O)c1
REMARK SMILES IDX 5 1 4 2 6 3 7 4 8 5 9 6 13 7 11 8 10 9 12 11 2 13 1 14 3 15
REMARK H PARENT 10 10 12 12 3 16
ROOT
ATOM      1  C   UNL     1      -8.556   1.697 -31.917  1.00  0.00     0.016 C 
ATOM      2  C   UNL     1      -8.921   0.805 -32.850  1.00  0.00     0.094 C 
ENDROOT
BRANCH   1   3
ATOM      3  C   UNL     1      -7.191   1.828 -31.389  1.00  0.00    -0.021 A 
ATOM      4  C   UNL     1      -7.018   2.325 -30.084  1.00  0.00     0.012 A 
ATOM      5  C   UNL     1      -5.743   2.450 -29.522  1.00  0.00     0.051 A 
ATOM      6  C   UNL     1      -4.637   2.064 -30.265  1.00  0.00     0.157 A 
ATOM      7  C   UNL     1      -6.062   1.428 -32.116  1.00  0.00     0.058 A 
ATOM      8  C   UNL     1      -4.800   1.556 -31.551  1.00  0.00     0.157 A 
BRANCH   6   9
ATOM      9  O   UNL     1      -3.364   2.159 -29.775  1.00  0.00    -0.504 OA
ATOM     10  H   UNL     1      -3.203   1.390 -29.201  1.00  0.00     0.293 HD
ENDBRANCH   6   9
BRANCH   8  11
ATOM     11  O   UNL     1      -3.706   1.172 -32.275  1.00  0.00    -0.504 OA
ATOM     12  H   UNL     1      -2.962   1.231 -31.643  1.00  0.00     0.293 HD
ENDBRANCH   8  11
ENDBRANCH   1   3
BRANCH   2  13
ATOM     13  C   UNL     1     -10.322   0.783 -33.319  1.00  0.00     0.328 C 
ATOM     14  O   UNL     1     -10.847  -0.156 -33.890  1.00  0.00    -0.247 OA
BRANCH  13  15
ATOM     15  O   UNL     1     -10.966   1.933 -33.042  1.00  0.00    -0.478 OA
ATOM     16  H   UNL     1     -11.901   1.840 -32.785  1.00  0.00     0.297 HD
ENDBRANCH  13  15
ENDBRANCH   2  13
TORSDOF 5
ENDMDL
MODEL 4
REMARK VINA RESULT:      -6.2     16.057     19.749
REMARK SMILES O=C(O)/C=C/c1ccc(O)c(O)c1
REMARK SMILES IDX 5 1 4 2 6 3 7 4 8 5 9 6 13 7 11 8 10 9 12 11 2 13 1 14 3 15
REMARK H PARENT 10 10 12 12 3 16
ROOT
ATOM      1  C   UNL     1      -6.337   0.994 -31.928  1.00  0.00     0.016 C 
ATOM      2  C   UNL     1      -5.449   0.231 -31.271  1.00  0.00     0.094 C 
ENDROOT
BRANCH   1   3
ATOM      3  C   UNL     1      -7.738   0.614 -32.163  1.00  0.00    -0.021 A 
ATOM      4  C   UNL     1      -8.115  -0.725 -31.958  1.00  0.00     0.012 A 
ATOM      5  C   UNL     1      -9.439  -1.138 -32.145  1.00  0.00     0.051 A 
ATOM      6  C   UNL     1     -10.390  -0.204 -32.528  1.00  0.00     0.157 A 
ATOM      7  C   UNL     1      -8.716   1.546 -32.533  1.00  0.00     0.058 A 
ATOM      8  C   UNL     1     -10.028   1.127 -32.718  1.00  0.00     0.157 A 
BRANCH   6   9
ATOM      9  O   UNL     1     -11.700  -0.541 -32.727  1.00  0.00    -0.504 OA
ATOM     10  H   UNL     1     -12.042  -0.926 -31.901  1.00  0.00     0.293 HD
ENDBRANCH   6   9
BRANCH   8  11
ATOM     11  O   UNL     1     -10.971   2.043 -33.088  1.00  0.00    -0.504 OA
ATOM     12  H   UNL     1     -11.825   1.594 -32.926  1.00  0.00     0.293 HD
ENDBRANCH   8  11
ENDBRANCH   1   3
BRANCH   2  13
ATOM     13  C   UNL     1      -4.073   0.730 -31.077  1.00  0.00     0.328 C 
ATOM     14  O   UNL     1      -3.521   0.840 -29.997  1.00  0.00    -0.247 OA
BRANCH  13  15
ATOM     15  O   UNL     1      -3.483   1.056 -32.244  1.00  0.00    -0.478 OA
ATOM     16  H   UNL     1      -3.597   0.412 -32.967  1.00  0.00     0.297 HD
ENDBRANCH  13  15
ENDBRANCH   2  13
TORSDOF 5
ENDMDL
MODEL 5
REMARK VINA RESULT:      -6.2      2.024      2.934
REMARK SMILES O=C(O)/C=C/c1ccc(O)c(O)c1
REMARK SMILES IDX 5 1 4 2 6 3 7 4 8 5 9 6 13 7 11 8 10 9 12 11 2 13 1 14 3 15
REMARK H PARENT 10 10 12 12 3 16
ROOT
ATOM      1  C   UNL     1       7.733  -1.313 -19.088  1.00  0.00     0.016 C 
ATOM      2  C   UNL     1       6.474  -1.518 -19.507  1.00  0.00     0.094 C 
ENDROOT
BRANCH   1   3
ATOM      3  C   UNL     1       8.093  -0.476 -17.935  1.00  0.00    -0.021 A 
ATOM      4  C   UNL     1       9.185  -0.864 -17.138  1.00  0.00     0.012 A 
ATOM      5  C   UNL     1       9.587  -0.094 -16.041  1.00  0.00     0.051 A 
ATOM      6  C   UNL     1       8.900   1.076 -15.749  1.00  0.00     0.157 A 
ATOM      7  C   UNL     1       7.424   0.717 -17.634  1.00  0.00     0.058 A 
ATOM      8  C   UNL     1       7.828   1.476 -16.543  1.00  0.00     0.157 A 
BRANCH   6   9
ATOM      9  O   UNL     1       9.241   1.875 -14.693  1.00  0.00    -0.504 OA
ATOM     10  H   UNL     1      10.178   2.121 -14.791  1.00  0.00     0.293 HD
ENDBRANCH   6   9
BRANCH   8  11
ATOM     11  O   UNL     1       7.161   2.632 -16.254  1.00  0.00    -0.504 OA
ATOM     12  H   UNL     1       7.094   2.639 -15.278  1.00  0.00     0.293 HD
ENDBRANCH   8  11
ENDBRANCH   1   3
BRANCH   2  13
ATOM     13  C   UNL     1       6.234  -2.399 -20.668  1.00  0.00     0.328 C 
ATOM     14  O   UNL     1       5.604  -2.081 -21.661  1.00  0.00    -0.247 OA
BRANCH  13  15
ATOM     15  O   UNL     1       6.798  -3.613 -20.508  1.00  0.00    -0.478 OA
ATOM     16  H   UNL     1       7.463  -3.859 -21.175  1.00  0.00     0.297 HD
ENDBRANCH  13  15
ENDBRANCH   2  13
TORSDOF 5
ENDMDL
MODEL 6
REMARK VINA RESULT:      -6.2     15.733     18.540
REMARK SMILES O=C(O)/C=C/c1ccc(O)c(O)c1
REMARK SMILES IDX 5 1 4 2 6 3 7 4 8 5 9 6 13 7 11 8 10 9 12 11 2 13 1 14 3 15
REMARK H PARENT 10 10 12 12 3 16
ROOT
ATOM      1  C   UNL     1      -8.573   1.394 -31.664  1.00  0.00     0.016 C 
ATOM      2  C   UNL     1      -9.118   0.596 -32.596  1.00  0.00     0.094 C 
ENDROOT
BRANCH   1   3
ATOM      3  C   UNL     1      -7.158   1.355 -31.268  1.00  0.00    -0.021 A 
ATOM      4  C   UNL     1      -6.584   2.510 -30.707  1.00  0.00     0.012 A 
ATOM      5  C   UNL     1      -5.248   2.523 -30.291  1.00  0.00     0.051 A 
ATOM      6  C   UNL     1      -4.488   1.371 -30.427  1.00  0.00     0.157 A 
ATOM      7  C   UNL     1      -6.378   0.197 -31.380  1.00  0.00     0.058 A 
ATOM      8  C   UNL     1      -5.052   0.218 -30.966  1.00  0.00     0.157 A 
BRANCH   6   9
ATOM      9  O   UNL     1      -3.177   1.316 -30.040  1.00  0.00    -0.504 OA
ATOM     10  H   UNL     1      -2.685   1.989 -30.542  1.00  0.00     0.293 HD
ENDBRANCH   6   9
BRANCH   8  11
ATOM     11  O   UNL     1      -4.300  -0.915 -31.090  1.00  0.00    -0.504 OA
ATOM     12  H   UNL     1      -3.942  -1.070 -30.193  1.00  0.00     0.293 HD
ENDBRANCH   8  11
ENDBRANCH   1   3
BRANCH   2  13
ATOM     13  C   UNL     1     -10.550   0.744 -32.924  1.00  0.00     0.328 C 
ATOM     14  O   UNL     1     -11.328  -0.183 -33.065  1.00  0.00    -0.247 OA
BRANCH  13  15
ATOM     15  O   UNL     1     -10.909   2.036 -33.054  1.00  0.00    -0.478 OA
ATOM     16  H   UNL     1     -10.274   2.603 -33.527  1.00  0.00     0.297 HD
ENDBRANCH  13  15
ENDBRANCH   2  13
TORSDOF 5
ENDMDL
MODEL 7
REMARK VINA RESULT:      -6.1     15.496     19.088
REMARK SMILES O=C(O)/C=C/c1ccc(O)c(O)c1
REMARK SMILES IDX 5 1 4 2 6 3 7 4 8 5 9 6 13 7 11 8 10 9 12 11 2 13 1 14 3 15
REMARK H PARENT 10 10 12 12 3 16
ROOT
ATOM      1  C   UNL     1      -6.073  -0.250 -31.165  1.00  0.00     0.016 C 
ATOM      2  C   UNL     1      -4.886   0.341 -31.374  1.00  0.00     0.094 C 
ENDROOT
BRANCH   1   3
ATOM      3  C   UNL     1      -7.360   0.303 -31.608  1.00  0.00    -0.021 A 
ATOM      4  C   UNL     1      -7.387   1.102 -32.765  1.00  0.00     0.012 A 
ATOM      5  C   UNL     1      -8.587   1.637 -33.245  1.00  0.00     0.051 A 
ATOM      6  C   UNL     1      -9.768   1.359 -32.571  1.00  0.00     0.157 A 
ATOM      7  C   UNL     1      -8.565   0.020 -30.952  1.00  0.00     0.058 A 
ATOM      8  C   UNL     1      -9.753   0.554 -31.435  1.00  0.00     0.157 A 
BRANCH   6   9
ATOM      9  O   UNL     1     -10.974   1.848 -32.988  1.00  0.00    -0.504 OA
ATOM     10  H   UNL     1     -11.595   1.802 -32.240  1.00  0.00     0.293 HD
ENDBRANCH   6   9
BRANCH   8  11
ATOM     11  O   UNL     1     -10.920   0.278 -30.781  1.00  0.00    -0.504 OA
ATOM     12  H   UNL     1     -11.004  -0.695 -30.831  1.00  0.00     0.293 HD
ENDBRANCH   8  11
ENDBRANCH   1   3
BRANCH   2  13
ATOM     13  C   UNL     1      -3.655  -0.323 -30.900  1.00  0.00     0.328 C 
ATOM     14  O   UNL     1      -3.346  -0.455 -29.729  1.00  0.00    -0.247 OA
BRANCH  13  15
ATOM     15  O   UNL     1      -2.898  -0.776 -31.919  1.00  0.00    -0.478 OA
ATOM     16  H   UNL     1      -3.353  -1.357 -32.555  1.00  0.00     0.297 HD
ENDBRANCH  13  15
ENDBRANCH   2  13
TORSDOF 5
ENDMDL
MODEL 8
REMARK VINA RESULT:      -6.1     15.801     18.585
REMARK SMILES O=C(O)/C=C/c1ccc(O)c(O)c1
REMARK SMILES IDX 5 1 4 2 6 3 7 4 8 5 9 6 13 7 11 8 10 9 12 11 2 13 1 14 3 15
REMARK H PARENT 10 10 12 12 3 16
ROOT
ATOM      1  C   UNL     1      -8.535   1.226 -31.635  1.00  0.00     0.016 C 
ATOM      2  C   UNL     1      -9.102   0.542 -32.642  1.00  0.00     0.094 C 
ENDROOT
BRANCH   1   3
ATOM      3  C   UNL     1      -7.106   1.164 -31.298  1.00  0.00    -0.021 A 
ATOM      4  C   UNL     1      -6.497  -0.097 -31.176  1.00  0.00     0.012 A 
ATOM      5  C   UNL     1      -5.135  -0.216 -30.878  1.00  0.00     0.051 A 
ATOM      6  C   UNL     1      -4.377   0.934 -30.713  1.00  0.00     0.157 A 
ATOM      7  C   UNL     1      -6.320   2.314 -31.145  1.00  0.00     0.058 A 
ATOM      8  C   UNL     1      -4.968   2.188 -30.848  1.00  0.00     0.157 A 
BRANCH   6   9
ATOM      9  O   UNL     1      -3.042   0.889 -30.422  1.00  0.00    -0.504 OA
ATOM     10  H   UNL     1      -2.595   1.579 -30.944  1.00  0.00     0.293 HD
ENDBRANCH   6   9
BRANCH   8  11
ATOM     11  O   UNL     1      -4.215   3.316 -30.692  1.00  0.00    -0.504 OA
ATOM     12  H   UNL     1      -4.858   4.051 -30.754  1.00  0.00     0.293 HD
ENDBRANCH   8  11
ENDBRANCH   1   3
BRANCH   2  13
ATOM     13  C   UNL     1     -10.548   0.703 -32.898  1.00  0.00     0.328 C 
ATOM     14  O   UNL     1     -11.341  -0.217 -32.993  1.00  0.00    -0.247 OA
BRANCH  13  15
ATOM     15  O   UNL     1     -10.900   1.998 -33.017  1.00  0.00    -0.478 OA
ATOM     16  H   UNL     1     -11.816   2.159 -33.309  1.00  0.00     0.297 HD
ENDBRANCH  13  15
ENDBRANCH   2  13
TORSDOF 5
ENDMDL
MODEL 9
REMARK VINA RESULT:      -5.9      2.098      2.978
REMARK SMILES O=C(O)/C=C/c1ccc(O)c(O)c1
REMARK SMILES IDX 5 1 4 2 6 3 7 4 8 5 9 6 13 7 11 8 10 9 12 11 2 13 1 14 3 15
REMARK H PARENT 10 10 12 12 3 16
ROOT
ATOM      1  C   UNL     1       7.753  -1.472 -19.084  1.00  0.00     0.016 C 
ATOM      2  C   UNL     1       6.522  -1.520 -19.620  1.00  0.00     0.094 C 
ENDROOT
BRANCH   1   3
ATOM      3  C   UNL     1       8.146  -0.563 -17.998  1.00  0.00    -0.021 A 
ATOM      4  C   UNL     1       7.274   0.482 -17.647  1.00  0.00     0.012 A 
ATOM      5  C   UNL     1       7.586   1.364 -16.606  1.00  0.00     0.051 A 
ATOM      6  C   UNL     1       8.771   1.190 -15.907  1.00  0.00     0.157 A 
ATOM      7  C   UNL     1       9.329  -0.733 -17.268  1.00  0.00     0.058 A 
ATOM      8  C   UNL     1       9.633   0.147 -16.237  1.00  0.00     0.157 A 
BRANCH   6   9
ATOM      9  O   UNL     1       9.136   2.014 -14.879  1.00  0.00    -0.504 OA
ATOM     10  H   UNL     1       9.085   2.933 -15.196  1.00  0.00     0.293 HD
ENDBRANCH   6   9
BRANCH   8  11
ATOM     11  O   UNL     1      10.794  -0.023 -15.539  1.00  0.00    -0.504 OA
ATOM     12  H   UNL     1      10.819  -0.980 -15.335  1.00  0.00     0.293 HD
ENDBRANCH   8  11
ENDBRANCH   1   3
BRANCH   2  13
ATOM     13  C   UNL     1       6.241  -2.493 -20.695  1.00  0.00     0.328 C 
ATOM     14  O   UNL     1       6.596  -3.658 -20.685  1.00  0.00    -0.247 OA
BRANCH  13  15
ATOM     15  O   UNL     1       5.537  -1.943 -21.703  1.00  0.00    -0.478 OA
ATOM     16  H   UNL     1       5.673  -0.988 -21.840  1.00  0.00     0.297 HD
ENDBRANCH  13  15
ENDBRANCH   2  13
TORSDOF 5
ENDMDL
MODEL 10
REMARK VINA RESULT:      -5.9     13.371     14.841
REMARK SMILES O=C(O)/C=C/c1ccc(O)c(O)c1
REMARK SMILES IDX 5 1 4 2 6 3 7 4 8 5 9 6 13 7 11 8 10 9 12 11 2 13 1 14 3 15
REMARK H PARENT 10 10 12 12 3 16
ROOT
ATOM      1  C   UNL     1      -4.563  -0.338 -26.536  1.00  0.00     0.016 C 
ATOM      2  C   UNL     1      -5.392  -1.209 -25.939  1.00  0.00     0.094 C 
ENDROOT
BRANCH   1   3
ATOM      3  C   UNL     1      -4.125  -0.442 -27.935  1.00  0.00    -0.021 A 
ATOM      4  C   UNL     1      -3.755  -1.704 -28.433  1.00  0.00     0.012 A 
ATOM      5  C   UNL     1      -3.351  -1.866 -29.762  1.00  0.00     0.051 A 
ATOM      6  C   UNL     1      -3.330  -0.760 -30.601  1.00  0.00     0.157 A 
ATOM      7  C   UNL     1      -4.113   0.659 -28.802  1.00  0.00     0.058 A 
ATOM      8  C   UNL     1      -3.710   0.490 -30.121  1.00  0.00     0.157 A 
BRANCH   6   9
ATOM      9  O   UNL     1      -2.947  -0.849 -31.910  1.00  0.00    -0.504 OA
ATOM     10  H   UNL     1      -2.853   0.054 -32.260  1.00  0.00     0.293 HD
ENDBRANCH   6   9
BRANCH   8  11
ATOM     11  O   UNL     1      -3.695   1.572 -30.954  1.00  0.00    -0.504 OA
ATOM     12  H   UNL     1      -4.377   1.374 -31.626  1.00  0.00     0.293 HD
ENDBRANCH   8  11
ENDBRANCH   1   3
BRANCH   2  13
ATOM     13  C   UNL     1      -5.779  -0.987 -24.531  1.00  0.00     0.328 C 
ATOM     14  O   UNL     1      -5.570   0.039 -23.908  1.00  0.00    -0.247 OA
BRANCH  13  15
ATOM     15  O   UNL     1      -6.399  -2.060 -24.001  1.00  0.00    -0.478 OA
ATOM     16  H   UNL     1      -6.614  -1.995 -23.053  1.00  0.00     0.297 HD
ENDBRANCH  13  15
ENDBRANCH   2  13
TORSDOF 5
ENDMDL
