MODEL 1
REMARK VINA RESULT:      -7.9      0.000      0.000
REMARK SMILES CCCCCCCCCCCCCC(=O)O
REMARK SMILES IDX 8 1 7 2 6 3 5 4 4 5 3 6 2 7 1 8 9 9 10 10 11 11 12 12 13 13
REMARK SMILES IDX 14 14 15 15 16 16
REMARK H PARENT 16 17
ROOT
ATOM      1  C   UNL     1       4.876  -3.070 -22.207  1.00  0.00     0.000 C 
ENDROOT
BRANCH   1   2
ATOM      2  C   UNL     1       4.017  -2.120 -23.042  1.00  0.00     0.000 C 
BRANCH   2   3
ATOM      3  C   UNL     1       4.776  -1.619 -24.272  1.00  0.00    -0.000 C 
BRANCH   3   4
ATOM      4  C   UNL     1       3.838  -0.940 -25.270  1.00  0.00    -0.000 C 
BRANCH   4   5
ATOM      5  C   UNL     1       4.588  -0.502 -26.528  1.00  0.00    -0.000 C 
BRANCH   5   6
ATOM      6  C   UNL     1       5.887   0.224 -26.179  1.00  0.00    -0.000 C 
BRANCH   6   7
ATOM      7  C   UNL     1       6.779   0.391 -27.409  1.00  0.00    -0.003 C 
ATOM      8  C   UNL     1       5.966   0.386 -28.693  1.00  0.00     0.004 C 
ENDBRANCH   6   7
ENDBRANCH   5   6
ENDBRANCH   4   5
ENDBRANCH   3   4
ENDBRANCH   2   3
ENDBRANCH   1   2
BRANCH   1   9
ATOM      9  C   UNL     1       5.887  -2.304 -21.352  1.00  0.00     0.000 C 
BRANCH   9  10
ATOM     10  C   UNL     1       6.278  -3.102 -20.107  1.00  0.00     0.000 C 
BRANCH  10  11
ATOM     11  C   UNL     1       6.444  -2.190 -18.890  1.00  0.00     0.001 C 
BRANCH  11  12
ATOM     12  C   UNL     1       7.143  -0.883 -19.267  1.00  0.00     0.012 C 
BRANCH  12  13
ATOM     13  C   UNL     1       8.321  -0.594 -18.338  1.00  0.00     0.122 C 
BRANCH  13  14
ATOM     14  C   UNL     1       7.893   0.159 -17.099  1.00  0.00     0.303 C 
ATOM     15  O   UNL     1       7.324  -0.327 -16.136  1.00  0.00    -0.252 OA
BRANCH  14  16
ATOM     16  O   UNL     1       8.212   1.473 -17.164  1.00  0.00    -0.481 OA
ATOM     17  H   UNL     1       9.171   1.641 -17.232  1.00  0.00     0.296 HD
ENDBRANCH  14  16
ENDBRANCH  13  14
ENDBRANCH  12  13
ENDBRANCH  11  12
ENDBRANCH  10  11
ENDBRANCH   9  10
ENDBRANCH   1   9
TORSDOF 13
ENDMDL
MODEL 2
REMARK VINA RESULT:      -7.7      1.047      1.587
REMARK SMILES CCCCCCCCCCCCCC(=O)O
REMARK SMILES IDX 8 1 7 2 6 3 5 4 4 5 3 6 2 7 1 8 9 9 10 10 11 11 12 12 13 13
REMARK SMILES IDX 14 14 15 15 16 16
REMARK H PARENT 16 17
ROOT
ATOM      1  C   UNL     1       6.109  -2.074 -21.115  1.00  0.00     0.000 C 
ENDROOT
BRANCH   1   2
ATOM      2  C   UNL     1       5.058  -2.579 -22.104  1.00  0.00     0.000 C 
BRANCH   2   3
ATOM      3  C   UNL     1       5.145  -1.834 -23.437  1.00  0.00    -0.000 C 
BRANCH   3   4
ATOM      4  C   UNL     1       3.831  -1.922 -24.214  1.00  0.00    -0.000 C 
BRANCH   4   5
ATOM      5  C   UNL     1       3.746  -0.837 -25.287  1.00  0.00    -0.000 C 
BRANCH   5   6
ATOM      6  C   UNL     1       5.125  -0.254 -25.601  1.00  0.00    -0.000 C 
BRANCH   6   7
ATOM      7  C   UNL     1       5.344  -0.125 -27.108  1.00  0.00    -0.003 C 
ATOM      8  C   UNL     1       6.764   0.314 -27.429  1.00  0.00     0.004 C 
ENDBRANCH   6   7
ENDBRANCH   5   6
ENDBRANCH   4   5
ENDBRANCH   3   4
ENDBRANCH   2   3
ENDBRANCH   1   2
BRANCH   1   9
ATOM      9  C   UNL     1       6.314  -3.061 -19.964  1.00  0.00     0.000 C 
BRANCH   9  10
ATOM     10  C   UNL     1       6.472  -2.331 -18.629  1.00  0.00     0.000 C 
BRANCH  10  11
ATOM     11  C   UNL     1       6.984  -0.904 -18.831  1.00  0.00     0.001 C 
BRANCH  11  12
ATOM     12  C   UNL     1       8.446  -0.774 -18.405  1.00  0.00     0.012 C 
BRANCH  12  13
ATOM     13  C   UNL     1       8.625   0.318 -17.351  1.00  0.00     0.122 C 
BRANCH  13  14
ATOM     14  C   UNL     1       8.722  -0.256 -15.955  1.00  0.00     0.303 C 
ATOM     15  O   UNL     1       8.895  -1.432 -15.683  1.00  0.00    -0.252 OA
BRANCH  14  16
ATOM     16  O   UNL     1       8.593   0.696 -15.002  1.00  0.00    -0.481 OA
ATOM     17  H   UNL     1       7.791   1.244 -15.099  1.00  0.00     0.296 HD
ENDBRANCH  14  16
ENDBRANCH  13  14
ENDBRANCH  12  13
ENDBRANCH  11  12
ENDBRANCH  10  11
ENDBRANCH   9  10
ENDBRANCH   1   9
TORSDOF 13
ENDMDL
MODEL 3
REMARK VINA RESULT:      -7.6      3.824      8.302
REMARK SMILES CCCCCCCCCCCCCC(=O)O
REMARK SMILES IDX 8 1 7 2 6 3 5 4 4 5 3 6 2 7 1 8 9 9 10 10 11 11 12 12 13 13
REMARK SMILES IDX 14 14 15 15 16 16
REMARK H PARENT 16 17
ROOT
ATOM      1  C   UNL     1       6.875  -2.219 -19.701  1.00  0.00     0.000 C 
ENDROOT
BRANCH   1   2
ATOM      2  C   UNL     1       6.290  -2.507 -18.317  1.00  0.00     0.000 C 
BRANCH   2   3
ATOM      3  C   UNL     1       6.377  -1.278 -17.410  1.00  0.00    -0.000 C 
BRANCH   3   4
ATOM      4  C   UNL     1       7.073  -0.113 -18.114  1.00  0.00    -0.000 C 
BRANCH   4   5
ATOM      5  C   UNL     1       8.507   0.062 -17.613  1.00  0.00    -0.000 C 
BRANCH   5   6
ATOM      6  C   UNL     1       8.559   0.946 -16.367  1.00  0.00    -0.000 C 
BRANCH   6   7
ATOM      7  C   UNL     1       9.504   0.368 -15.313  1.00  0.00    -0.003 C 
ATOM      8  C   UNL     1       9.546  -1.150 -15.374  1.00  0.00     0.004 C 
ENDBRANCH   6   7
ENDBRANCH   5   6
ENDBRANCH   4   5
ENDBRANCH   3   4
ENDBRANCH   2   3
ENDBRANCH   1   2
BRANCH   1   9
ATOM      9  C   UNL     1       6.205  -3.073 -20.779  1.00  0.00     0.000 C 
BRANCH   9  10
ATOM     10  C   UNL     1       5.553  -2.199 -21.851  1.00  0.00     0.000 C 
BRANCH  10  11
ATOM     11  C   UNL     1       4.434  -2.948 -22.576  1.00  0.00     0.001 C 
BRANCH  11  12
ATOM     12  C   UNL     1       3.783  -2.073 -23.647  1.00  0.00     0.012 C 
BRANCH  12  13
ATOM     13  C   UNL     1       4.832  -1.363 -24.501  1.00  0.00     0.122 C 
BRANCH  13  14
ATOM     14  C   UNL     1       4.203  -0.545 -25.606  1.00  0.00     0.303 C 
ATOM     15  O   UNL     1       4.723  -0.281 -26.677  1.00  0.00    -0.252 OA
BRANCH  14  16
ATOM     16  O   UNL     1       2.959  -0.119 -25.281  1.00  0.00    -0.481 OA
ATOM     17  H   UNL     1       2.278  -0.815 -25.338  1.00  0.00     0.296 HD
ENDBRANCH  14  16
ENDBRANCH  13  14
ENDBRANCH  12  13
ENDBRANCH  11  12
ENDBRANCH  10  11
ENDBRANCH   9  10
ENDBRANCH   1   9
TORSDOF 13
ENDMDL
MODEL 4
REMARK VINA RESULT:      -7.5      1.616      2.867
REMARK SMILES CCCCCCCCCCCCCC(=O)O
REMARK SMILES IDX 8 1 7 2 6 3 5 4 4 5 3 6 2 7 1 8 9 9 10 10 11 11 12 12 13 13
REMARK SMILES IDX 14 14 15 15 16 16
REMARK H PARENT 16 17
ROOT
ATOM      1  C   UNL     1       7.087  -2.587 -19.947  1.00  0.00     0.000 C 
ENDROOT
BRANCH   1   2
ATOM      2  C   UNL     1       6.111  -3.242 -20.924  1.00  0.00     0.000 C 
BRANCH   2   3
ATOM      3  C   UNL     1       5.446  -2.202 -21.828  1.00  0.00    -0.000 C 
BRANCH   3   4
ATOM      4  C   UNL     1       4.437  -2.850 -22.777  1.00  0.00    -0.000 C 
BRANCH   4   5
ATOM      5  C   UNL     1       3.884  -1.834 -23.777  1.00  0.00    -0.000 C 
BRANCH   5   6
ATOM      6  C   UNL     1       4.985  -1.296 -24.691  1.00  0.00    -0.000 C 
BRANCH   6   7
ATOM      7  C   UNL     1       4.398  -0.595 -25.916  1.00  0.00    -0.003 C 
ATOM      8  C   UNL     1       5.487  -0.002 -26.795  1.00  0.00     0.004 C 
ENDBRANCH   6   7
ENDBRANCH   5   6
ENDBRANCH   4   5
ENDBRANCH   3   4
ENDBRANCH   2   3
ENDBRANCH   1   2
BRANCH   1   9
ATOM      9  C   UNL     1       6.623  -1.185 -19.548  1.00  0.00     0.000 C 
BRANCH   9  10
ATOM     10  C   UNL     1       6.388  -1.087 -18.040  1.00  0.00     0.000 C 
BRANCH  10  11
ATOM     11  C   UNL     1       7.299  -0.038 -17.401  1.00  0.00     0.001 C 
BRANCH  11  12
ATOM     12  C   UNL     1       8.769  -0.450 -17.490  1.00  0.00     0.012 C 
BRANCH  12  13
ATOM     13  C   UNL     1       9.409  -0.533 -16.106  1.00  0.00     0.122 C 
BRANCH  13  14
ATOM     14  C   UNL     1      10.556   0.441 -15.955  1.00  0.00     0.303 C 
ATOM     15  O   UNL     1      11.703   0.147 -15.662  1.00  0.00    -0.252 OA
BRANCH  14  16
ATOM     16  O   UNL     1      10.174   1.720 -16.184  1.00  0.00    -0.481 OA
ATOM     17  H   UNL     1      10.847   2.254 -16.646  1.00  0.00     0.296 HD
ENDBRANCH  14  16
ENDBRANCH  13  14
ENDBRANCH  12  13
ENDBRANCH  11  12
ENDBRANCH  10  11
ENDBRANCH   9  10
ENDBRANCH   1   9
TORSDOF 13
ENDMDL
MODEL 5
REMARK VINA RESULT:      -7.4      3.957      8.276
REMARK SMILES CCCCCCCCCCCCCC(=O)O
REMARK SMILES IDX 8 1 7 2 6 3 5 4 4 5 3 6 2 7 1 8 9 9 10 10 11 11 12 12 13 13
REMARK SMILES IDX 14 14 15 15 16 16
REMARK H PARENT 16 17
ROOT
ATOM      1  C   UNL     1       4.893  -2.956 -22.281  1.00  0.00     0.000 C 
ENDROOT
BRANCH   1   2
ATOM      2  C   UNL     1       5.689  -1.859 -21.573  1.00  0.00     0.000 C 
BRANCH   2   3
ATOM      3  C   UNL     1       6.374  -2.393 -20.314  1.00  0.00    -0.000 C 
BRANCH   3   4
ATOM      4  C   UNL     1       7.048  -1.270 -19.525  1.00  0.00    -0.000 C 
BRANCH   4   5
ATOM      5  C   UNL     1       6.481  -1.169 -18.108  1.00  0.00    -0.000 C 
BRANCH   5   6
ATOM      6  C   UNL     1       7.032   0.053 -17.373  1.00  0.00    -0.000 C 
BRANCH   6   7
ATOM      7  C   UNL     1       7.915  -0.357 -16.195  1.00  0.00    -0.003 C 
ATOM      8  C   UNL     1       9.342  -0.639 -16.639  1.00  0.00     0.004 C 
ENDBRANCH   6   7
ENDBRANCH   5   6
ENDBRANCH   4   5
ENDBRANCH   3   4
ENDBRANCH   2   3
ENDBRANCH   1   2
BRANCH   1   9
ATOM      9  C   UNL     1       4.069  -2.390 -23.440  1.00  0.00     0.000 C 
BRANCH   9  10
ATOM     10  C   UNL     1       4.905  -1.446 -24.305  1.00  0.00     0.000 C 
BRANCH  10  11
ATOM     11  C   UNL     1       4.027  -0.659 -25.279  1.00  0.00     0.001 C 
BRANCH  11  12
ATOM     12  C   UNL     1       4.699  -0.522 -26.645  1.00  0.00     0.012 C 
BRANCH  12  13
ATOM     13  C   UNL     1       6.159  -0.091 -26.508  1.00  0.00     0.122 C 
BRANCH  13  14
ATOM     14  C   UNL     1       6.520   1.000 -27.492  1.00  0.00     0.303 C 
ATOM     15  O   UNL     1       7.241   1.955 -27.258  1.00  0.00    -0.252 OA
BRANCH  14  16
ATOM     16  O   UNL     1       5.944   0.808 -28.702  1.00  0.00    -0.481 OA
ATOM     17  H   UNL     1       6.074   1.551 -29.321  1.00  0.00     0.296 HD
ENDBRANCH  14  16
ENDBRANCH  13  14
ENDBRANCH  12  13
ENDBRANCH  11  12
ENDBRANCH  10  11
ENDBRANCH   9  10
ENDBRANCH   1   9
TORSDOF 13
ENDMDL
MODEL 6
REMARK VINA RESULT:      -6.5      3.043      5.434
REMARK SMILES CCCCCCCCCCCCCC(=O)O
REMARK SMILES IDX 8 1 7 2 6 3 5 4 4 5 3 6 2 7 1 8 9 9 10 10 11 11 12 12 13 13
REMARK SMILES IDX 14 14 15 15 16 16
REMARK H PARENT 16 17
ROOT
ATOM      1  C   UNL     1       8.389  -0.403 -18.515  1.00  0.00     0.000 C 
ENDROOT
BRANCH   1   2
ATOM      2  C   UNL     1       6.907  -0.741 -18.682  1.00  0.00     0.000 C 
BRANCH   2   3
ATOM      3  C   UNL     1       6.717  -2.007 -19.520  1.00  0.00    -0.000 C 
BRANCH   3   4
ATOM      4  C   UNL     1       6.045  -1.696 -20.857  1.00  0.00    -0.000 C 
BRANCH   4   5
ATOM      5  C   UNL     1       5.500  -2.965 -21.513  1.00  0.00    -0.000 C 
BRANCH   5   6
ATOM      6  C   UNL     1       4.566  -2.634 -22.678  1.00  0.00    -0.000 C 
BRANCH   6   7
ATOM      7  C   UNL     1       5.201  -1.622 -23.631  1.00  0.00    -0.003 C 
ATOM      8  C   UNL     1       4.403  -1.490 -24.918  1.00  0.00     0.004 C 
ENDBRANCH   6   7
ENDBRANCH   5   6
ENDBRANCH   4   5
ENDBRANCH   3   4
ENDBRANCH   2   3
ENDBRANCH   1   2
BRANCH   1   9
ATOM      9  C   UNL     1       8.674   0.197 -17.138  1.00  0.00     0.000 C 
BRANCH   9  10
ATOM     10  C   UNL     1       9.164  -0.870 -16.159  1.00  0.00     0.000 C 
BRANCH  10  11
ATOM     11  C   UNL     1      10.408  -0.404 -15.401  1.00  0.00     0.001 C 
BRANCH  11  12
ATOM     12  C   UNL     1      10.876   0.966 -15.893  1.00  0.00     0.012 C 
BRANCH  12  13
ATOM     13  C   UNL     1      11.800   1.637 -14.877  1.00  0.00     0.122 C 
BRANCH  13  14
ATOM     14  C   UNL     1      13.041   2.204 -15.531  1.00  0.00     0.303 C 
ATOM     15  O   UNL     1      13.673   3.169 -15.135  1.00  0.00    -0.252 OA
BRANCH  14  16
ATOM     16  O   UNL     1      13.396   1.511 -16.639  1.00  0.00    -0.481 OA
ATOM     17  H   UNL     1      13.579   2.077 -17.413  1.00  0.00     0.296 HD
ENDBRANCH  14  16
ENDBRANCH  13  14
ENDBRANCH  12  13
ENDBRANCH  11  12
ENDBRANCH  10  11
ENDBRANCH   9  10
ENDBRANCH   1   9
TORSDOF 13
ENDMDL
MODEL 7
REMARK VINA RESULT:      -6.1      3.635      7.066
REMARK SMILES CCCCCCCCCCCCCC(=O)O
REMARK SMILES IDX 8 1 7 2 6 3 5 4 4 5 3 6 2 7 1 8 9 9 10 10 11 11 12 12 13 13
REMARK SMILES IDX 14 14 15 15 16 16
REMARK H PARENT 16 17
ROOT
ATOM      1  C   UNL     1       8.833   0.966 -16.597  1.00  0.00     0.000 C 
ENDROOT
BRANCH   1   2
ATOM      2  C   UNL     1       7.389   0.608 -16.950  1.00  0.00     0.000 C 
BRANCH   2   3
ATOM      3  C   UNL     1       7.066  -0.838 -16.568  1.00  0.00    -0.000 C 
BRANCH   3   4
ATOM      4  C   UNL     1       6.310  -1.556 -17.687  1.00  0.00    -0.000 C 
BRANCH   4   5
ATOM      5  C   UNL     1       7.155  -1.647 -18.958  1.00  0.00    -0.000 C 
BRANCH   5   6
ATOM      6  C   UNL     1       6.309  -1.400 -20.208  1.00  0.00    -0.000 C 
BRANCH   6   7
ATOM      7  C   UNL     1       6.064  -2.697 -20.979  1.00  0.00    -0.003 C 
ATOM      8  C   UNL     1       5.133  -2.476 -22.161  1.00  0.00     0.004 C 
ENDBRANCH   6   7
ENDBRANCH   5   6
ENDBRANCH   4   5
ENDBRANCH   3   4
ENDBRANCH   2   3
ENDBRANCH   1   2
BRANCH   1   9
ATOM      9  C   UNL     1       9.541  -0.193 -15.893  1.00  0.00     0.000 C 
BRANCH   9  10
ATOM     10  C   UNL     1      11.060  -0.071 -16.015  1.00  0.00     0.000 C 
BRANCH  10  11
ATOM     11  C   UNL     1      11.706   0.222 -14.659  1.00  0.00     0.001 C 
BRANCH  11  12
ATOM     12  C   UNL     1      12.065   1.702 -14.524  1.00  0.00     0.012 C 
BRANCH  12  13
ATOM     13  C   UNL     1      13.162   2.102 -15.509  1.00  0.00     0.122 C 
BRANCH  13  14
ATOM     14  C   UNL     1      12.717   3.219 -16.427  1.00  0.00     0.303 C 
ATOM     15  O   UNL     1      13.431   3.813 -17.218  1.00  0.00    -0.252 OA
BRANCH  14  16
ATOM     16  O   UNL     1      11.402   3.506 -16.282  1.00  0.00    -0.481 OA
ATOM     17  H   UNL     1      10.812   2.757 -16.491  1.00  0.00     0.296 HD
ENDBRANCH  14  16
ENDBRANCH  13  14
ENDBRANCH  12  13
ENDBRANCH  11  12
ENDBRANCH  10  11
ENDBRANCH   9  10
ENDBRANCH   1   9
TORSDOF 13
ENDMDL
MODEL 8
REMARK VINA RESULT:      -5.9     13.717     16.865
REMARK SMILES CCCCCCCCCCCCCC(=O)O
REMARK SMILES IDX 8 1 7 2 6 3 5 4 4 5 3 6 2 7 1 8 9 9 10 10 11 11 12 12 13 13
REMARK SMILES IDX 14 14 15 15 16 16
REMARK H PARENT 16 17
ROOT
ATOM      1  C   UNL     1      -6.392   0.942 -29.311  1.00  0.00     0.000 C 
ENDROOT
BRANCH   1   2
ATOM      2  C   UNL     1      -5.868  -0.484 -29.146  1.00  0.00     0.000 C 
BRANCH   2   3
ATOM      3  C   UNL     1      -5.160  -0.967 -30.414  1.00  0.00    -0.000 C 
BRANCH   3   4
ATOM      4  C   UNL     1      -3.838  -1.663 -30.085  1.00  0.00    -0.000 C 
BRANCH   4   5
ATOM      5  C   UNL     1      -3.244  -1.137 -28.778  1.00  0.00    -0.000 C 
BRANCH   5   6
ATOM      6  C   UNL     1      -2.183  -0.067 -29.038  1.00  0.00    -0.000 C 
BRANCH   6   7
ATOM      7  C   UNL     1      -2.285   1.075 -28.028  1.00  0.00    -0.003 C 
ATOM      8  C   UNL     1      -3.252   0.740 -26.903  1.00  0.00     0.004 C 
ENDBRANCH   6   7
ENDBRANCH   5   6
ENDBRANCH   4   5
ENDBRANCH   3   4
ENDBRANCH   2   3
ENDBRANCH   1   2
BRANCH   1   9
ATOM      9  C   UNL     1      -5.930   1.559 -30.633  1.00  0.00     0.000 C 
BRANCH   9  10
ATOM     10  C   UNL     1      -7.118   1.880 -31.540  1.00  0.00     0.000 C 
BRANCH  10  11
ATOM     11  C   UNL     1      -6.975   1.205 -32.905  1.00  0.00     0.001 C 
BRANCH  11  12
ATOM     12  C   UNL     1      -8.342   0.925 -33.531  1.00  0.00     0.012 C 
BRANCH  12  13
ATOM     13  C   UNL     1      -9.058  -0.220 -32.816  1.00  0.00     0.122 C 
BRANCH  13  14
ATOM     14  C   UNL     1     -10.430   0.190 -32.329  1.00  0.00     0.303 C 
ATOM     15  O   UNL     1     -10.671   0.729 -31.262  1.00  0.00    -0.252 OA
BRANCH  14  16
ATOM     16  O   UNL     1     -11.401  -0.111 -33.223  1.00  0.00    -0.481 OA
ATOM     17  H   UNL     1     -11.324   0.378 -34.064  1.00  0.00     0.296 HD
ENDBRANCH  14  16
ENDBRANCH  13  14
ENDBRANCH  12  13
ENDBRANCH  11  12
ENDBRANCH  10  11
ENDBRANCH   9  10
ENDBRANCH   1   9
TORSDOF 13
ENDMDL
MODEL 9
REMARK VINA RESULT:      -5.9     14.000     17.033
REMARK SMILES CCCCCCCCCCCCCC(=O)O
REMARK SMILES IDX 8 1 7 2 6 3 5 4 4 5 3 6 2 7 1 8 9 9 10 10 11 11 12 12 13 13
REMARK SMILES IDX 14 14 15 15 16 16
REMARK H PARENT 16 17
ROOT
ATOM      1  C   UNL     1      -6.784  -1.999 -30.107  1.00  0.00     0.000 C 
ENDROOT
BRANCH   1   2
ATOM      2  C   UNL     1      -6.190  -1.292 -28.888  1.00  0.00     0.000 C 
BRANCH   2   3
ATOM      3  C   UNL     1      -4.733  -1.702 -28.663  1.00  0.00    -0.000 C 
BRANCH   3   4
ATOM      4  C   UNL     1      -3.934  -1.663 -29.966  1.00  0.00    -0.000 C 
BRANCH   4   5
ATOM      5  C   UNL     1      -3.172  -0.345 -30.110  1.00  0.00    -0.000 C 
BRANCH   5   6
ATOM      6  C   UNL     1      -2.314  -0.060 -28.877  1.00  0.00    -0.000 C 
BRANCH   6   7
ATOM      7  C   UNL     1      -2.512   1.373 -28.381  1.00  0.00    -0.003 C 
ATOM      8  C   UNL     1      -3.881   1.911 -28.763  1.00  0.00     0.004 C 
ENDBRANCH   6   7
ENDBRANCH   5   6
ENDBRANCH   4   5
ENDBRANCH   3   4
ENDBRANCH   2   3
ENDBRANCH   1   2
BRANCH   1   9
ATOM      9  C   UNL     1      -7.661  -1.053 -30.929  1.00  0.00     0.000 C 
BRANCH   9  10
ATOM     10  C   UNL     1      -7.029   0.335 -31.038  1.00  0.00     0.000 C 
BRANCH  10  11
ATOM     11  C   UNL     1      -6.913   0.782 -32.496  1.00  0.00     0.001 C 
BRANCH  11  12
ATOM     12  C   UNL     1      -8.164   1.536 -32.946  1.00  0.00     0.012 C 
BRANCH  12  13
ATOM     13  C   UNL     1      -9.110   0.629 -33.732  1.00  0.00     0.122 C 
BRANCH  13  14
ATOM     14  C   UNL     1     -10.532   0.724 -33.228  1.00  0.00     0.303 C 
ATOM     15  O   UNL     1     -11.280  -0.220 -33.033  1.00  0.00    -0.252 OA
BRANCH  14  16
ATOM     16  O   UNL     1     -10.911   2.004 -33.005  1.00  0.00    -0.481 OA
ATOM     17  H   UNL     1     -10.429   2.435 -32.274  1.00  0.00     0.296 HD
ENDBRANCH  14  16
ENDBRANCH  13  14
ENDBRANCH  12  13
ENDBRANCH  11  12
ENDBRANCH  10  11
ENDBRANCH   9  10
ENDBRANCH   1   9
TORSDOF 13
ENDMDL
MODEL 10
REMARK VINA RESULT:      -5.8      1.788      2.972
REMARK SMILES CCCCCCCCCCCCCC(=O)O
REMARK SMILES IDX 8 1 7 2 6 3 5 4 4 5 3 6 2 7 1 8 9 9 10 10 11 11 12 12 13 13
REMARK SMILES IDX 14 14 15 15 16 16
REMARK H PARENT 16 17
ROOT
ATOM      1  C   UNL     1       4.011  -1.259 -24.482  1.00  0.00     0.000 C 
ENDROOT
BRANCH   1   2
ATOM      2  C   UNL     1       5.172  -0.674 -25.287  1.00  0.00     0.000 C 
BRANCH   2   3
ATOM      3  C   UNL     1       4.794  -0.496 -26.759  1.00  0.00    -0.000 C 
BRANCH   3   4
ATOM      4  C   UNL     1       5.996  -0.054 -27.595  1.00  0.00    -0.000 C 
BRANCH   4   5
ATOM      5  C   UNL     1       6.633   1.212 -27.023  1.00  0.00    -0.000 C 
BRANCH   5   6
ATOM      6  C   UNL     1       7.178   2.112 -28.133  1.00  0.00    -0.000 C 
BRANCH   6   7
ATOM      7  C   UNL     1       7.112   3.587 -27.737  1.00  0.00    -0.003 C 
ATOM      8  C   UNL     1       6.730   4.465 -28.918  1.00  0.00     0.004 C 
ENDBRANCH   6   7
ENDBRANCH   5   6
ENDBRANCH   4   5
ENDBRANCH   3   4
ENDBRANCH   2   3
ENDBRANCH   1   2
BRANCH   1   9
ATOM      9  C   UNL     1       4.463  -2.447 -23.632  1.00  0.00     0.000 C 
BRANCH   9  10
ATOM     10  C   UNL     1       5.231  -1.983 -22.393  1.00  0.00     0.000 C 
BRANCH  10  11
ATOM     11  C   UNL     1       5.689  -3.170 -21.544  1.00  0.00     0.001 C 
BRANCH  11  12
ATOM     12  C   UNL     1       5.936  -2.753 -20.094  1.00  0.00     0.012 C 
BRANCH  12  13
ATOM     13  C   UNL     1       6.507  -1.338 -20.011  1.00  0.00     0.122 C 
BRANCH  13  14
ATOM     14  C   UNL     1       7.322  -1.131 -18.754  1.00  0.00     0.303 C 
ATOM     15  O   UNL     1       8.165  -0.265 -18.590  1.00  0.00    -0.252 OA
BRANCH  14  16
ATOM     16  O   UNL     1       7.014  -2.032 -17.791  1.00  0.00    -0.481 OA
ATOM     17  H   UNL     1       7.756  -2.233 -17.189  1.00  0.00     0.296 HD
ENDBRANCH  14  16
ENDBRANCH  13  14
ENDBRANCH  12  13
ENDBRANCH  11  12
ENDBRANCH  10  11
ENDBRANCH   9  10
ENDBRANCH   1   9
TORSDOF 13
ENDMDL
