MODEL 1
REMARK VINA RESULT:      -5.7      0.000      0.000
REMARK SMILES COc1cccc(OC)c1C(=O)O
REMARK SMILES IDX 3 1 10 2 7 3 6 4 5 5 4 6 2 7 1 8 11 9 12 10 13 11 8 13 9 14
REMARK H PARENT 13 12
ROOT
ATOM      1  C   UNL     1      -5.630  -1.313 -30.128  1.00  0.00     0.137 A 
ATOM      2  C   UNL     1      -4.329  -0.781 -30.087  1.00  0.00     0.143 A 
ATOM      3  C   UNL     1      -3.547  -0.975 -28.927  1.00  0.00     0.137 A 
ATOM      4  C   UNL     1      -4.084  -1.675 -27.837  1.00  0.00     0.047 A 
ATOM      5  C   UNL     1      -5.381  -2.187 -27.892  1.00  0.00     0.008 A 
ATOM      6  C   UNL     1      -6.158  -1.998 -29.030  1.00  0.00     0.047 A 
ENDROOT
BRANCH   1   7
ATOM      7  O   UNL     1      -6.468  -1.071 -31.185  1.00  0.00    -0.496 OA
ATOM      8  C   UNL     1      -7.780  -1.567 -30.913  1.00  0.00     0.278 C 
ENDBRANCH   1   7
BRANCH   2   9
ATOM      9  C   UNL     1      -3.794  -0.068 -31.287  1.00  0.00     0.343 C 
ATOM     10  O   UNL     1      -4.168   1.036 -31.646  1.00  0.00    -0.246 OA
BRANCH   9  11
ATOM     11  O   UNL     1      -2.826  -0.743 -31.948  1.00  0.00    -0.477 OA
ATOM     12  H   UNL     1      -1.930  -0.401 -31.753  1.00  0.00     0.297 HD
ENDBRANCH   9  11
ENDBRANCH   2   9
BRANCH   3  13
ATOM     13  O   UNL     1      -2.294  -0.411 -28.915  1.00  0.00    -0.496 OA
ATOM     14  C   UNL     1      -2.114   0.763 -28.126  1.00  0.00     0.278 C 
ENDBRANCH   3  13
TORSDOF 4
ENDMDL
MODEL 2
REMARK VINA RESULT:      -5.6      0.339      3.462
REMARK SMILES COc1cccc(OC)c1C(=O)O
REMARK SMILES IDX 3 1 10 2 7 3 6 4 5 5 4 6 2 7 1 8 11 9 12 10 13 11 8 13 9 14
REMARK H PARENT 13 12
ROOT
ATOM      1  C   UNL     1      -3.556  -0.836 -28.909  1.00  0.00     0.137 A 
ATOM      2  C   UNL     1      -4.363  -0.764 -30.058  1.00  0.00     0.143 A 
ATOM      3  C   UNL     1      -5.660  -1.321 -30.019  1.00  0.00     0.137 A 
ATOM      4  C   UNL     1      -6.113  -1.945 -28.848  1.00  0.00     0.047 A 
ATOM      5  C   UNL     1      -5.294  -2.017 -27.720  1.00  0.00     0.008 A 
ATOM      6  C   UNL     1      -4.014  -1.474 -27.752  1.00  0.00     0.047 A 
ENDROOT
BRANCH   1   7
ATOM      7  O   UNL     1      -2.255  -0.404 -28.919  1.00  0.00    -0.496 OA
ATOM      8  C   UNL     1      -2.108   0.773 -28.122  1.00  0.00     0.278 C 
ENDBRANCH   1   7
BRANCH   2   9
ATOM      9  C   UNL     1      -3.844  -0.061 -31.270  1.00  0.00     0.343 C 
ATOM     10  O   UNL     1      -4.237   1.031 -31.645  1.00  0.00    -0.246 OA
BRANCH   9  11
ATOM     11  O   UNL     1      -2.867  -0.730 -31.925  1.00  0.00    -0.477 OA
ATOM     12  H   UNL     1      -2.005  -0.681 -31.464  1.00  0.00     0.297 HD
ENDBRANCH   9  11
ENDBRANCH   2   9
BRANCH   3  13
ATOM     13  O   UNL     1      -6.404  -1.258 -31.173  1.00  0.00    -0.496 OA
ATOM     14  C   UNL     1      -7.601  -0.485 -31.135  1.00  0.00     0.278 C 
ENDBRANCH   3  13
TORSDOF 4
ENDMDL
MODEL 3
REMARK VINA RESULT:      -5.2     12.998     15.346
REMARK SMILES COc1cccc(OC)c1C(=O)O
REMARK SMILES IDX 3 1 10 2 7 3 6 4 5 5 4 6 2 7 1 8 11 9 12 10 13 11 8 13 9 14
REMARK H PARENT 13 12
ROOT
ATOM      1  C   UNL     1       8.060   7.154 -33.182  1.00  0.00     0.137 A 
ATOM      2  C   UNL     1       6.744   7.647 -33.161  1.00  0.00     0.143 A 
ATOM      3  C   UNL     1       6.500   8.965 -33.607  1.00  0.00     0.137 A 
ATOM      4  C   UNL     1       7.569   9.759 -34.044  1.00  0.00     0.047 A 
ATOM      5  C   UNL     1       8.872   9.256 -34.048  1.00  0.00     0.008 A 
ATOM      6  C   UNL     1       9.120   7.960 -33.607  1.00  0.00     0.047 A 
ENDROOT
BRANCH   1   7
ATOM      7  O   UNL     1       8.371   5.921 -32.669  1.00  0.00    -0.496 OA
ATOM      8  C   UNL     1       9.032   6.050 -31.408  1.00  0.00     0.278 C 
ENDBRANCH   1   7
BRANCH   2   9
ATOM      9  C   UNL     1       5.636   6.750 -32.714  1.00  0.00     0.343 C 
ATOM     10  O   UNL     1       5.491   6.367 -31.564  1.00  0.00    -0.246 OA
BRANCH   9  11
ATOM     11  O   UNL     1       4.771   6.403 -33.695  1.00  0.00    -0.477 OA
ATOM     12  H   UNL     1       5.226   6.146 -34.522  1.00  0.00     0.297 HD
ENDBRANCH   9  11
ENDBRANCH   2   9
BRANCH   3  13
ATOM     13  O   UNL     1       5.204   9.419 -33.540  1.00  0.00    -0.496 OA
ATOM     14  C   UNL     1       5.012  10.828 -33.445  1.00  0.00     0.278 C 
ENDBRANCH   3  13
TORSDOF 4
ENDMDL
MODEL 4
REMARK VINA RESULT:      -5.2      2.034      4.321
REMARK SMILES COc1cccc(OC)c1C(=O)O
REMARK SMILES IDX 3 1 10 2 7 3 6 4 5 5 4 6 2 7 1 8 11 9 12 10 13 11 8 13 9 14
REMARK H PARENT 13 12
ROOT
ATOM      1  C   UNL     1      -3.756   1.326 -29.685  1.00  0.00     0.137 A 
ATOM      2  C   UNL     1      -4.394   0.367 -30.491  1.00  0.00     0.143 A 
ATOM      3  C   UNL     1      -5.710   0.617 -30.940  1.00  0.00     0.137 A 
ATOM      4  C   UNL     1      -6.359   1.801 -30.563  1.00  0.00     0.047 A 
ATOM      5  C   UNL     1      -5.714   2.737 -29.753  1.00  0.00     0.008 A 
ATOM      6  C   UNL     1      -4.420   2.496 -29.304  1.00  0.00     0.047 A 
ENDROOT
BRANCH   1   7
ATOM      7  O   UNL     1      -2.521   1.094 -29.138  1.00  0.00    -0.496 OA
ATOM      8  C   UNL     1      -2.609   0.984 -27.716  1.00  0.00     0.278 C 
ENDBRANCH   1   7
BRANCH   2   9
ATOM      9  C   UNL     1      -3.647  -0.864 -30.889  1.00  0.00     0.343 C 
ATOM     10  O   UNL     1      -3.817  -1.959 -30.379  1.00  0.00    -0.246 OA
BRANCH   9  11
ATOM     11  O   UNL     1      -2.764  -0.677 -31.897  1.00  0.00    -0.477 OA
ATOM     12  H   UNL     1      -3.171  -0.792 -32.780  1.00  0.00     0.297 HD
ENDBRANCH   9  11
ENDBRANCH   2   9
BRANCH   3  13
ATOM     13  O   UNL     1      -6.308  -0.360 -31.700  1.00  0.00    -0.496 OA
ATOM     14  C   UNL     1      -7.402  -1.062 -31.114  1.00  0.00     0.278 C 
ENDBRANCH   3  13
TORSDOF 4
ENDMDL
MODEL 5
REMARK VINA RESULT:      -5.2      2.398      3.022
REMARK SMILES COc1cccc(OC)c1C(=O)O
REMARK SMILES IDX 3 1 10 2 7 3 6 4 5 5 4 6 2 7 1 8 11 9 12 10 13 11 8 13 9 14
REMARK H PARENT 13 12
ROOT
ATOM      1  C   UNL     1      -5.776   1.090 -30.954  1.00  0.00     0.137 A 
ATOM      2  C   UNL     1      -4.526   0.680 -30.459  1.00  0.00     0.143 A 
ATOM      3  C   UNL     1      -3.814   1.544 -29.597  1.00  0.00     0.137 A 
ATOM      4  C   UNL     1      -4.356   2.793 -29.264  1.00  0.00     0.047 A 
ATOM      5  C   UNL     1      -5.595   3.188 -29.773  1.00  0.00     0.008 A 
ATOM      6  C   UNL     1      -6.299   2.344 -30.625  1.00  0.00     0.047 A 
ENDROOT
BRANCH   1   7
ATOM      7  O   UNL     1      -6.465   0.339 -31.871  1.00  0.00    -0.496 OA
ATOM      8  C   UNL     1      -7.072   1.177 -32.856  1.00  0.00     0.278 C 
ENDBRANCH   1   7
BRANCH   2   9
ATOM      9  C   UNL     1      -4.007  -0.674 -30.821  1.00  0.00     0.343 C 
ATOM     10  O   UNL     1      -4.434  -1.716 -30.349  1.00  0.00    -0.246 OA
BRANCH   9  11
ATOM     11  O   UNL     1      -3.022  -0.662 -31.748  1.00  0.00    -0.477 OA
ATOM     12  H   UNL     1      -3.172  -1.314 -32.463  1.00  0.00     0.297 HD
ENDBRANCH   9  11
ENDBRANCH   2   9
BRANCH   3  13
ATOM     13  O   UNL     1      -2.582   1.118 -29.162  1.00  0.00    -0.496 OA
ATOM     14  C   UNL     1      -2.352   1.117 -27.755  1.00  0.00     0.278 C 
ENDBRANCH   3  13
TORSDOF 4
ENDMDL
MODEL 6
REMARK VINA RESULT:      -5.1      2.061      3.150
REMARK SMILES COc1cccc(OC)c1C(=O)O
REMARK SMILES IDX 3 1 10 2 7 3 6 4 5 5 4 6 2 7 1 8 11 9 12 10 13 11 8 13 9 14
REMARK H PARENT 13 12
ROOT
ATOM      1  C   UNL     1      -3.644  -0.119 -29.750  1.00  0.00     0.137 A 
ATOM      2  C   UNL     1      -3.974   1.201 -30.101  1.00  0.00     0.143 A 
ATOM      3  C   UNL     1      -3.593   2.254 -29.240  1.00  0.00     0.137 A 
ATOM      4  C   UNL     1      -2.909   1.966 -28.051  1.00  0.00     0.047 A 
ATOM      5  C   UNL     1      -2.598   0.647 -27.713  1.00  0.00     0.008 A 
ATOM      6  C   UNL     1      -2.974  -0.394 -28.554  1.00  0.00     0.047 A 
ENDROOT
BRANCH   1   7
ATOM      7  O   UNL     1      -4.074  -1.187 -30.493  1.00  0.00    -0.496 OA
ATOM      8  C   UNL     1      -5.170  -1.841 -29.851  1.00  0.00     0.278 C 
ENDBRANCH   1   7
BRANCH   2   9
ATOM      9  C   UNL     1      -4.677   1.458 -31.395  1.00  0.00     0.343 C 
ATOM     10  O   UNL     1      -5.868   1.708 -31.485  1.00  0.00    -0.246 OA
BRANCH   9  11
ATOM     11  O   UNL     1      -3.874   1.413 -32.482  1.00  0.00    -0.477 OA
ATOM     12  H   UNL     1      -3.962   2.208 -33.047  1.00  0.00     0.297 HD
ENDBRANCH   9  11
ENDBRANCH   2   9
BRANCH   3  13
ATOM     13  O   UNL     1      -3.964   3.527 -29.605  1.00  0.00    -0.496 OA
ATOM     14  C   UNL     1      -4.893   4.201 -28.760  1.00  0.00     0.278 C 
ENDBRANCH   3  13
TORSDOF 4
ENDMDL
MODEL 7
REMARK VINA RESULT:      -5.0      1.664      3.719
REMARK SMILES COc1cccc(OC)c1C(=O)O
REMARK SMILES IDX 3 1 10 2 7 3 6 4 5 5 4 6 2 7 1 8 11 9 12 10 13 11 8 13 9 14
REMARK H PARENT 13 12
ROOT
ATOM      1  C   UNL     1      -5.178  -1.351 -29.874  1.00  0.00     0.137 A 
ATOM      2  C   UNL     1      -5.253  -0.244 -30.737  1.00  0.00     0.143 A 
ATOM      3  C   UNL     1      -6.442  -0.026 -31.468  1.00  0.00     0.137 A 
ATOM      4  C   UNL     1      -7.514  -0.919 -31.332  1.00  0.00     0.047 A 
ATOM      5  C   UNL     1      -7.417  -2.019 -30.478  1.00  0.00     0.008 A 
ATOM      6  C   UNL     1      -6.249  -2.242 -29.758  1.00  0.00     0.047 A 
ENDROOT
BRANCH   1   7
ATOM      7  O   UNL     1      -4.017  -1.669 -29.217  1.00  0.00    -0.496 OA
ATOM      8  C   UNL     1      -4.175  -1.508 -27.806  1.00  0.00     0.278 C 
ENDBRANCH   1   7
BRANCH   2   9
ATOM      9  C   UNL     1      -4.093   0.694 -30.823  1.00  0.00     0.343 C 
ATOM     10  O   UNL     1      -3.768   1.460 -29.930  1.00  0.00    -0.246 OA
BRANCH   9  11
ATOM     11  O   UNL     1      -3.398   0.615 -31.981  1.00  0.00    -0.477 OA
ATOM     12  H   UNL     1      -3.136   1.494 -32.322  1.00  0.00     0.297 HD
ENDBRANCH   9  11
ENDBRANCH   2   9
BRANCH   3  13
ATOM     13  O   UNL     1      -6.461   1.049 -32.325  1.00  0.00    -0.496 OA
ATOM     14  C   UNL     1      -7.493   1.078 -33.309  1.00  0.00     0.278 C 
ENDBRANCH   3  13
TORSDOF 4
ENDMDL
MODEL 8
REMARK VINA RESULT:      -5.0      1.800      2.603
REMARK SMILES COc1cccc(OC)c1C(=O)O
REMARK SMILES IDX 3 1 10 2 7 3 6 4 5 5 4 6 2 7 1 8 11 9 12 10 13 11 8 13 9 14
REMARK H PARENT 13 12
ROOT
ATOM      1  C   UNL     1      -6.798   0.212 -31.852  1.00  0.00     0.137 A 
ATOM      2  C   UNL     1      -5.580   0.315 -31.158  1.00  0.00     0.143 A 
ATOM      3  C   UNL     1      -5.265  -0.654 -30.180  1.00  0.00     0.137 A 
ATOM      4  C   UNL     1      -6.173  -1.687 -29.909  1.00  0.00     0.047 A 
ATOM      5  C   UNL     1      -7.383  -1.768 -30.601  1.00  0.00     0.008 A 
ATOM      6  C   UNL     1      -7.701  -0.815 -31.563  1.00  0.00     0.047 A 
ENDROOT
BRANCH   1   7
ATOM      7  O   UNL     1      -7.201   1.177 -32.738  1.00  0.00    -0.496 OA
ATOM      8  C   UNL     1      -8.117   0.636 -33.692  1.00  0.00     0.278 C 
ENDBRANCH   1   7
BRANCH   2   9
ATOM      9  C   UNL     1      -4.634   1.418 -31.506  1.00  0.00     0.343 C 
ATOM     10  O   UNL     1      -4.773   2.575 -31.144  1.00  0.00    -0.246 OA
BRANCH   9  11
ATOM     11  O   UNL     1      -3.573   1.027 -32.250  1.00  0.00    -0.477 OA
ATOM     12  H   UNL     1      -3.031   0.346 -31.801  1.00  0.00     0.297 HD
ENDBRANCH   9  11
ENDBRANCH   2   9
BRANCH   3  13
ATOM     13  O   UNL     1      -4.080  -0.498 -29.502  1.00  0.00    -0.496 OA
ATOM     14  C   UNL     1      -3.447  -1.679 -29.015  1.00  0.00     0.278 C 
ENDBRANCH   3  13
TORSDOF 4
ENDMDL
MODEL 9
REMARK VINA RESULT:      -5.0      2.732      4.891
REMARK SMILES COc1cccc(OC)c1C(=O)O
REMARK SMILES IDX 3 1 10 2 7 3 6 4 5 5 4 6 2 7 1 8 11 9 12 10 13 11 8 13 9 14
REMARK H PARENT 13 12
ROOT
ATOM      1  C   UNL     1      -8.341  -0.208 -32.782  1.00  0.00     0.137 A 
ATOM      2  C   UNL     1      -8.013  -0.950 -31.635  1.00  0.00     0.143 A 
ATOM      3  C   UNL     1      -6.864  -0.593 -30.894  1.00  0.00     0.137 A 
ATOM      4  C   UNL     1      -6.069   0.480 -31.321  1.00  0.00     0.047 A 
ATOM      5  C   UNL     1      -6.405   1.200 -32.469  1.00  0.00     0.008 A 
ATOM      6  C   UNL     1      -7.532   0.851 -33.205  1.00  0.00     0.047 A 
ENDROOT
BRANCH   1   7
ATOM      7  O   UNL     1      -9.384  -0.569 -33.594  1.00  0.00    -0.496 OA
ATOM      8  C   UNL     1     -10.412   0.422 -33.569  1.00  0.00     0.278 C 
ENDBRANCH   1   7
BRANCH   2   9
ATOM      9  C   UNL     1      -8.910  -2.065 -31.206  1.00  0.00     0.343 C 
ATOM     10  O   UNL     1     -10.047  -1.905 -30.792  1.00  0.00    -0.246 OA
BRANCH   9  11
ATOM     11  O   UNL     1      -8.366  -3.297 -31.334  1.00  0.00    -0.477 OA
ATOM     12  H   UNL     1      -9.006  -4.012 -31.144  1.00  0.00     0.297 HD
ENDBRANCH   9  11
ENDBRANCH   2   9
BRANCH   3  13
ATOM     13  O   UNL     1      -6.561  -1.365 -29.798  1.00  0.00    -0.496 OA
ATOM     14  C   UNL     1      -5.216  -1.822 -29.676  1.00  0.00     0.278 C 
ENDBRANCH   3  13
TORSDOF 4
ENDMDL
MODEL 10
REMARK VINA RESULT:      -5.0     13.006     15.117
REMARK SMILES COc1cccc(OC)c1C(=O)O
REMARK SMILES IDX 3 1 10 2 7 3 6 4 5 5 4 6 2 7 1 8 11 9 12 10 13 11 8 13 9 14
REMARK H PARENT 13 12
ROOT
ATOM      1  C   UNL     1       6.465   8.930 -33.686  1.00  0.00     0.137 A 
ATOM      2  C   UNL     1       6.746   7.652 -33.173  1.00  0.00     0.143 A 
ATOM      3  C   UNL     1       8.093   7.248 -33.040  1.00  0.00     0.137 A 
ATOM      4  C   UNL     1       9.120   8.117 -33.434  1.00  0.00     0.047 A 
ATOM      5  C   UNL     1       8.822   9.379 -33.952  1.00  0.00     0.008 A 
ATOM      6  C   UNL     1       7.498   9.781 -34.088  1.00  0.00     0.047 A 
ENDROOT
BRANCH   1   7
ATOM      7  O   UNL     1       5.180   9.337 -33.930  1.00  0.00    -0.496 OA
ATOM      8  C   UNL     1       4.899  10.561 -33.249  1.00  0.00     0.278 C 
ENDBRANCH   1   7
BRANCH   2   9
ATOM      9  C   UNL     1       5.615   6.776 -32.739  1.00  0.00     0.343 C 
ATOM     10  O   UNL     1       5.435   6.416 -31.587  1.00  0.00    -0.246 OA
BRANCH   9  11
ATOM     11  O   UNL     1       4.773   6.421 -33.736  1.00  0.00    -0.477 OA
ATOM     12  H   UNL     1       4.091   7.101 -33.912  1.00  0.00     0.297 HD
ENDBRANCH   9  11
ENDBRANCH   2   9
BRANCH   3  13
ATOM     13  O   UNL     1       8.322   5.979 -32.564  1.00  0.00    -0.496 OA
ATOM     14  C   UNL     1       8.864   5.864 -31.250  1.00  0.00     0.278 C 
ENDBRANCH   3  13
TORSDOF 4
ENDMDL
