MODEL 1
REMARK VINA RESULT:      -8.2      0.000      0.000
REMARK SMILES O=C(/C=C/c1ccc(O)c(O)c1)O[C@H](Cc1ccc(O)c(O)c1)C(=O)O
REMARK SMILES IDX 13 1 14 2 15 3 16 4 17 5 18 6 19 7 23 8 21 9 20 10 22 12
REMARK SMILES IDX 24 14 25 15 26 16 2 18 1 19 3 20 4 21 5 22 12 23 6 24 10 25
REMARK SMILES IDX 7 26 8 27 11 28 9 30
REMARK H PARENT 20 11 22 13 26 17 11 29 9 31
ROOT
ATOM      1  O   UNL     1      -8.346  -0.135 -32.173  1.00  0.00    -0.447 OA
ENDROOT
BRANCH   1   2
ATOM      2  C   UNL     1      -9.469   0.529 -31.567  1.00  0.00     0.290 C 
BRANCH   2   3
ATOM      3  C   UNL     1      -9.910  -0.293 -30.343  1.00  0.00     0.093 C 
BRANCH   3   4
ATOM      4  C   UNL     1      -8.743  -0.854 -29.558  1.00  0.00    -0.040 A 
ATOM      5  C   UNL     1      -8.297  -2.166 -29.792  1.00  0.00     0.008 A 
ATOM      6  C   UNL     1      -7.213  -2.693 -29.082  1.00  0.00     0.050 A 
ATOM      7  C   UNL     1      -6.573  -1.902 -28.137  1.00  0.00     0.157 A 
ATOM      8  C   UNL     1      -8.094  -0.077 -28.586  1.00  0.00     0.054 A 
ATOM      9  C   UNL     1      -7.013  -0.604 -27.895  1.00  0.00     0.157 A 
BRANCH   7  10
ATOM     10  O   UNL     1      -5.503  -2.356 -27.417  1.00  0.00    -0.504 OA
ATOM     11  H   UNL     1      -4.700  -2.217 -27.949  1.00  0.00     0.293 HD
ENDBRANCH   7  10
BRANCH   9  12
ATOM     12  O   UNL     1      -6.378   0.169 -26.966  1.00  0.00    -0.504 OA
ATOM     13  H   UNL     1      -7.087   0.452 -26.356  1.00  0.00     0.293 HD
ENDBRANCH   9  12
ENDBRANCH   3   4
ENDBRANCH   2   3
BRANCH   2  14
ATOM     14  C   UNL     1     -10.646   0.670 -32.544  1.00  0.00     0.345 C 
ATOM     15  O   UNL     1     -11.344  -0.257 -32.927  1.00  0.00    -0.248 OA
BRANCH  14  16
ATOM     16  O   UNL     1     -10.869   1.942 -32.956  1.00  0.00    -0.478 OA
ATOM     17  H   UNL     1     -11.527   2.019 -33.690  1.00  0.00     0.296 HD
ENDBRANCH  14  16
ENDBRANCH   2  14
ENDBRANCH   1   2
BRANCH   1  18
ATOM     18  C   UNL     1      -7.467   0.681 -32.796  1.00  0.00     0.331 C 
ATOM     19  O   UNL     1      -7.528   1.007 -33.972  1.00  0.00    -0.247 OA
BRANCH  18  20
ATOM     20  C   UNL     1      -6.406   1.054 -31.846  1.00  0.00     0.094 C 
ATOM     21  C   UNL     1      -5.600   0.109 -31.341  1.00  0.00     0.016 C 
BRANCH  21  22
ATOM     22  C   UNL     1      -4.534   0.392 -30.372  1.00  0.00    -0.021 A 
ATOM     23  C   UNL     1      -4.495   1.595 -29.649  1.00  0.00     0.058 A 
ATOM     24  C   UNL     1      -3.567  -0.595 -30.119  1.00  0.00     0.012 A 
ATOM     25  C   UNL     1      -3.490   1.800 -28.709  1.00  0.00     0.157 A 
ATOM     26  C   UNL     1      -2.558  -0.378 -29.176  1.00  0.00     0.051 A 
ATOM     27  C   UNL     1      -2.529   0.819 -28.480  1.00  0.00     0.157 A 
BRANCH  25  28
ATOM     28  O   UNL     1      -3.408   2.951 -27.976  1.00  0.00    -0.504 OA
ATOM     29  H   UNL     1      -3.903   3.647 -28.442  1.00  0.00     0.293 HD
ENDBRANCH  25  28
BRANCH  27  30
ATOM     30  O   UNL     1      -1.548   1.028 -27.554  1.00  0.00    -0.504 OA
ATOM     31  H   UNL     1      -1.570   0.229 -26.990  1.00  0.00     0.293 HD
ENDBRANCH  27  30
ENDBRANCH  21  22
ENDBRANCH  18  20
ENDBRANCH   1  18
TORSDOF 12
ENDMDL
MODEL 2
REMARK VINA RESULT:      -7.8      2.906      6.910
REMARK SMILES O=C(/C=C/c1ccc(O)c(O)c1)O[C@H](Cc1ccc(O)c(O)c1)C(=O)O
REMARK SMILES IDX 13 1 14 2 15 3 16 4 17 5 18 6 19 7 23 8 21 9 20 10 22 12
REMARK SMILES IDX 24 14 25 15 26 16 2 18 1 19 3 20 4 21 5 22 12 23 6 24 10 25
REMARK SMILES IDX 7 26 8 27 11 28 9 30
REMARK H PARENT 20 11 22 13 26 17 11 29 9 31
ROOT
ATOM      1  O   UNL     1      -5.969  -0.829 -30.748  1.00  0.00    -0.447 OA
ENDROOT
BRANCH   1   2
ATOM      2  C   UNL     1      -5.343   0.464 -30.687  1.00  0.00     0.290 C 
BRANCH   2   3
ATOM      3  C   UNL     1      -6.443   1.536 -30.771  1.00  0.00     0.093 C 
BRANCH   3   4
ATOM      4  C   UNL     1      -7.679   1.057 -31.503  1.00  0.00    -0.040 A 
ATOM      5  C   UNL     1      -7.650   0.869 -32.896  1.00  0.00     0.008 A 
ATOM      6  C   UNL     1      -8.781   0.416 -33.583  1.00  0.00     0.050 A 
ATOM      7  C   UNL     1      -9.943   0.148 -32.873  1.00  0.00     0.157 A 
ATOM      8  C   UNL     1      -8.869   0.797 -30.806  1.00  0.00     0.054 A 
ATOM      9  C   UNL     1      -9.982   0.338 -31.495  1.00  0.00     0.157 A 
BRANCH   7  10
ATOM     10  O   UNL     1     -11.078  -0.306 -33.485  1.00  0.00    -0.504 OA
ATOM     11  H   UNL     1     -10.833  -0.644 -34.364  1.00  0.00     0.293 HD
ENDBRANCH   7  10
BRANCH   9  12
ATOM     12  O   UNL     1     -11.127   0.069 -30.802  1.00  0.00    -0.504 OA
ATOM     13  H   UNL     1     -10.829  -0.078 -29.883  1.00  0.00     0.293 HD
ENDBRANCH   9  12
ENDBRANCH   3   4
ENDBRANCH   2   3
BRANCH   2  14
ATOM     14  C   UNL     1      -4.338   0.667 -31.830  1.00  0.00     0.345 C 
ATOM     15  O   UNL     1      -4.372   1.593 -32.629  1.00  0.00    -0.248 OA
BRANCH  14  16
ATOM     16  O   UNL     1      -3.370  -0.279 -31.887  1.00  0.00    -0.478 OA
ATOM     17  H   UNL     1      -2.483   0.065 -32.156  1.00  0.00     0.296 HD
ENDBRANCH  14  16
ENDBRANCH   2  14
ENDBRANCH   1   2
BRANCH   1  18
ATOM     18  C   UNL     1      -5.427  -1.767 -29.940  1.00  0.00     0.331 C 
ATOM     19  O   UNL     1      -4.231  -1.905 -29.734  1.00  0.00    -0.247 OA
BRANCH  18  20
ATOM     20  C   UNL     1      -6.503  -2.618 -29.406  1.00  0.00     0.094 C 
ATOM     21  C   UNL     1      -7.694  -2.653 -30.022  1.00  0.00     0.016 C 
BRANCH  21  22
ATOM     22  C   UNL     1      -8.826  -3.456 -29.545  1.00  0.00    -0.021 A 
ATOM     23  C   UNL     1      -9.511  -4.341 -30.393  1.00  0.00     0.058 A 
ATOM     24  C   UNL     1      -9.187  -3.383 -28.189  1.00  0.00     0.012 A 
ATOM     25  C   UNL     1     -10.550  -5.114 -29.884  1.00  0.00     0.157 A 
ATOM     26  C   UNL     1     -10.234  -4.160 -27.689  1.00  0.00     0.051 A 
ATOM     27  C   UNL     1     -10.908  -5.019 -28.542  1.00  0.00     0.157 A 
BRANCH  25  28
ATOM     28  O   UNL     1     -11.248  -5.993 -30.665  1.00  0.00    -0.504 OA
ATOM     29  H   UNL     1     -11.838  -5.484 -31.248  1.00  0.00     0.293 HD
ENDBRANCH  25  28
BRANCH  27  30
ATOM     30  O   UNL     1     -11.926  -5.783 -28.051  1.00  0.00    -0.504 OA
ATOM     31  H   UNL     1     -12.495  -5.961 -28.827  1.00  0.00     0.293 HD
ENDBRANCH  27  30
ENDBRANCH  21  22
ENDBRANCH  18  20
ENDBRANCH   1  18
TORSDOF 12
ENDMDL
MODEL 3
REMARK VINA RESULT:      -7.7      1.929      3.587
REMARK SMILES O=C(/C=C/c1ccc(O)c(O)c1)O[C@H](Cc1ccc(O)c(O)c1)C(=O)O
REMARK SMILES IDX 13 1 14 2 15 3 16 4 17 5 18 6 19 7 23 8 21 9 20 10 22 12
REMARK SMILES IDX 24 14 25 15 26 16 2 18 1 19 3 20 4 21 5 22 12 23 6 24 10 25
REMARK SMILES IDX 7 26 8 27 11 28 9 30
REMARK H PARENT 20 11 22 13 26 17 11 29 9 31
ROOT
ATOM      1  O   UNL     1      -8.977  -1.270 -30.679  1.00  0.00    -0.447 OA
ENDROOT
BRANCH   1   2
ATOM      2  C   UNL     1      -8.750  -0.206 -31.620  1.00  0.00     0.290 C 
BRANCH   2   3
ATOM      3  C   UNL     1      -8.795   1.128 -30.857  1.00  0.00     0.093 C 
BRANCH   3   4
ATOM      4  C   UNL     1      -7.420   1.709 -30.601  1.00  0.00    -0.040 A 
ATOM      5  C   UNL     1      -7.151   2.391 -29.401  1.00  0.00     0.008 A 
ATOM      6  C   UNL     1      -5.882   2.921 -29.146  1.00  0.00     0.050 A 
ATOM      7  C   UNL     1      -4.880   2.767 -30.095  1.00  0.00     0.157 A 
ATOM      8  C   UNL     1      -6.399   1.579 -31.554  1.00  0.00     0.054 A 
ATOM      9  C   UNL     1      -5.141   2.100 -31.288  1.00  0.00     0.157 A 
BRANCH   7  10
ATOM     10  O   UNL     1      -3.617   3.255 -29.902  1.00  0.00    -0.504 OA
ATOM     11  H   UNL     1      -3.693   4.177 -29.601  1.00  0.00     0.293 HD
ENDBRANCH   7  10
BRANCH   9  12
ATOM     12  O   UNL     1      -4.150   1.949 -32.216  1.00  0.00    -0.504 OA
ATOM     13  H   UNL     1      -4.611   1.629 -33.017  1.00  0.00     0.293 HD
ENDBRANCH   9  12
ENDBRANCH   3   4
ENDBRANCH   2   3
BRANCH   2  14
ATOM     14  C   UNL     1      -9.801  -0.196 -32.739  1.00  0.00     0.345 C 
ATOM     15  O   UNL     1     -10.917   0.295 -32.638  1.00  0.00    -0.248 OA
BRANCH  14  16
ATOM     16  O   UNL     1      -9.388  -0.782 -33.889  1.00  0.00    -0.478 OA
ATOM     17  H   UNL     1      -9.303  -0.160 -34.652  1.00  0.00     0.296 HD
ENDBRANCH  14  16
ENDBRANCH   2  14
ENDBRANCH   1   2
BRANCH   1  18
ATOM     18  C   UNL     1      -8.013  -2.217 -30.640  1.00  0.00     0.331 C 
ATOM     19  O   UNL     1      -8.206  -3.417 -30.761  1.00  0.00    -0.247 OA
BRANCH  18  20
ATOM     20  C   UNL     1      -6.719  -1.569 -30.372  1.00  0.00     0.094 C 
ATOM     21  C   UNL     1      -6.239  -1.528 -29.120  1.00  0.00     0.016 C 
BRANCH  21  22
ATOM     22  C   UNL     1      -4.970  -0.884 -28.763  1.00  0.00    -0.021 A 
ATOM     23  C   UNL     1      -3.930  -0.736 -29.696  1.00  0.00     0.058 A 
ATOM     24  C   UNL     1      -4.821  -0.343 -27.476  1.00  0.00     0.012 A 
ATOM     25  C   UNL     1      -2.762  -0.079 -29.324  1.00  0.00     0.157 A 
ATOM     26  C   UNL     1      -3.642   0.312 -27.110  1.00  0.00     0.051 A 
ATOM     27  C   UNL     1      -2.621   0.437 -28.039  1.00  0.00     0.157 A 
BRANCH  25  28
ATOM     28  O   UNL     1      -1.721   0.094 -30.193  1.00  0.00    -0.504 OA
ATOM     29  H   UNL     1      -1.050  -0.586 -30.008  1.00  0.00     0.293 HD
ENDBRANCH  25  28
BRANCH  27  30
ATOM     30  O   UNL     1      -1.473   1.084 -27.684  1.00  0.00    -0.504 OA
ATOM     31  H   UNL     1      -0.954   1.133 -28.512  1.00  0.00     0.293 HD
ENDBRANCH  27  30
ENDBRANCH  21  22
ENDBRANCH  18  20
ENDBRANCH   1  18
TORSDOF 12
ENDMDL
MODEL 4
REMARK VINA RESULT:      -7.6      2.252      6.194
REMARK SMILES O=C(/C=C/c1ccc(O)c(O)c1)O[C@H](Cc1ccc(O)c(O)c1)C(=O)O
REMARK SMILES IDX 13 1 14 2 15 3 16 4 17 5 18 6 19 7 23 8 21 9 20 10 22 12
REMARK SMILES IDX 24 14 25 15 26 16 2 18 1 19 3 20 4 21 5 22 12 23 6 24 10 25
REMARK SMILES IDX 7 26 8 27 11 28 9 30
REMARK H PARENT 20 11 22 13 26 17 11 29 9 31
ROOT
ATOM      1  O   UNL     1      -3.606   1.700 -29.966  1.00  0.00    -0.447 OA
ENDROOT
BRANCH   1   2
ATOM      2  C   UNL     1      -3.667   0.282 -29.729  1.00  0.00     0.290 C 
BRANCH   2   3
ATOM      3  C   UNL     1      -2.943  -0.015 -28.405  1.00  0.00     0.093 C 
BRANCH   3   4
ATOM      4  C   UNL     1      -3.878  -0.493 -27.314  1.00  0.00    -0.040 A 
ATOM      5  C   UNL     1      -4.554  -1.719 -27.446  1.00  0.00     0.008 A 
ATOM      6  C   UNL     1      -5.411  -2.178 -26.441  1.00  0.00     0.050 A 
ATOM      7  C   UNL     1      -5.590  -1.409 -25.299  1.00  0.00     0.157 A 
ATOM      8  C   UNL     1      -4.086   0.278 -26.160  1.00  0.00     0.054 A 
ATOM      9  C   UNL     1      -4.930  -0.191 -25.164  1.00  0.00     0.157 A 
BRANCH   7  10
ATOM     10  O   UNL     1      -6.408  -1.806 -24.278  1.00  0.00    -0.504 OA
ATOM     11  H   UNL     1      -6.191  -1.273 -23.493  1.00  0.00     0.293 HD
ENDBRANCH   7  10
BRANCH   9  12
ATOM     12  O   UNL     1      -5.108   0.560 -24.037  1.00  0.00    -0.504 OA
ATOM     13  H   UNL     1      -4.445   1.274 -24.111  1.00  0.00     0.293 HD
ENDBRANCH   9  12
ENDBRANCH   3   4
ENDBRANCH   2   3
BRANCH   2  14
ATOM     14  C   UNL     1      -3.014  -0.518 -30.865  1.00  0.00     0.345 C 
ATOM     15  O   UNL     1      -3.329  -1.656 -31.182  1.00  0.00    -0.248 OA
BRANCH  14  16
ATOM     16  O   UNL     1      -2.036   0.154 -31.520  1.00  0.00    -0.478 OA
ATOM     17  H   UNL     1      -1.981   1.114 -31.290  1.00  0.00     0.296 HD
ENDBRANCH  14  16
ENDBRANCH   2  14
ENDBRANCH   1   2
BRANCH   1  18
ATOM     18  C   UNL     1      -4.764   2.365 -29.762  1.00  0.00     0.331 C 
ATOM     19  O   UNL     1      -4.869   3.409 -29.137  1.00  0.00    -0.247 OA
BRANCH  18  20
ATOM     20  C   UNL     1      -5.868   1.598 -30.362  1.00  0.00     0.094 C 
ATOM     21  C   UNL     1      -6.837   2.237 -31.034  1.00  0.00     0.016 C 
BRANCH  21  22
ATOM     22  C   UNL     1      -7.983   1.551 -31.643  1.00  0.00    -0.021 A 
ATOM     23  C   UNL     1      -9.087   1.140 -30.878  1.00  0.00     0.058 A 
ATOM     24  C   UNL     1      -8.001   1.361 -33.034  1.00  0.00     0.012 A 
ATOM     25  C   UNL     1     -10.170   0.533 -31.506  1.00  0.00     0.157 A 
ATOM     26  C   UNL     1      -9.091   0.747 -33.655  1.00  0.00     0.051 A 
ATOM     27  C   UNL     1     -10.167   0.337 -32.884  1.00  0.00     0.157 A 
BRANCH  25  28
ATOM     28  O   UNL     1     -11.271   0.118 -30.809  1.00  0.00    -0.504 OA
ATOM     29  H   UNL     1     -11.981  -0.075 -31.445  1.00  0.00     0.293 HD
ENDBRANCH  25  28
BRANCH  27  30
ATOM     30  O   UNL     1     -11.235  -0.256 -33.492  1.00  0.00    -0.504 OA
ATOM     31  H   UNL     1     -10.976  -1.195 -33.581  1.00  0.00     0.293 HD
ENDBRANCH  27  30
ENDBRANCH  21  22
ENDBRANCH  18  20
ENDBRANCH   1  18
TORSDOF 12
ENDMDL
MODEL 5
REMARK VINA RESULT:      -7.6      2.366      4.146
REMARK SMILES O=C(/C=C/c1ccc(O)c(O)c1)O[C@H](Cc1ccc(O)c(O)c1)C(=O)O
REMARK SMILES IDX 13 1 14 2 15 3 16 4 17 5 18 6 19 7 23 8 21 9 20 10 22 12
REMARK SMILES IDX 24 14 25 15 26 16 2 18 1 19 3 20 4 21 5 22 12 23 6 24 10 25
REMARK SMILES IDX 7 26 8 27 11 28 9 30
REMARK H PARENT 20 11 22 13 26 17 11 29 9 31
ROOT
ATOM      1  O   UNL     1      -6.907  -0.118 -31.420  1.00  0.00    -0.447 OA
ENDROOT
BRANCH   1   2
ATOM      2  C   UNL     1      -7.135  -0.912 -30.243  1.00  0.00     0.290 C 
BRANCH   2   3
ATOM      3  C   UNL     1      -5.905  -1.810 -30.022  1.00  0.00     0.093 C 
BRANCH   3   4
ATOM      4  C   UNL     1      -4.739  -1.070 -29.401  1.00  0.00    -0.040 A 
ATOM      5  C   UNL     1      -4.751  -0.747 -28.033  1.00  0.00     0.008 A 
ATOM      6  C   UNL     1      -3.675  -0.076 -27.444  1.00  0.00     0.050 A 
ATOM      7  C   UNL     1      -2.582   0.270 -28.227  1.00  0.00     0.157 A 
ATOM      8  C   UNL     1      -3.632  -0.697 -30.179  1.00  0.00     0.054 A 
ATOM      9  C   UNL     1      -2.565  -0.040 -29.584  1.00  0.00     0.157 A 
BRANCH   7  10
ATOM     10  O   UNL     1      -1.496   0.919 -27.709  1.00  0.00    -0.504 OA
ATOM     11  H   UNL     1      -1.817   1.668 -27.177  1.00  0.00     0.293 HD
ENDBRANCH   7  10
BRANCH   9  12
ATOM     12  O   UNL     1      -1.485   0.301 -30.347  1.00  0.00    -0.504 OA
ATOM     13  H   UNL     1      -0.861  -0.443 -30.235  1.00  0.00     0.293 HD
ENDBRANCH   9  12
ENDBRANCH   3   4
ENDBRANCH   2   3
BRANCH   2  14
ATOM     14  C   UNL     1      -8.392  -1.784 -30.375  1.00  0.00     0.345 C 
ATOM     15  O   UNL     1      -9.219  -1.948 -29.489  1.00  0.00    -0.248 OA
BRANCH  14  16
ATOM     16  O   UNL     1      -8.530  -2.371 -31.588  1.00  0.00    -0.478 OA
ATOM     17  H   UNL     1      -7.928  -2.010 -32.283  1.00  0.00     0.296 HD
ENDBRANCH  14  16
ENDBRANCH   2  14
ENDBRANCH   1   2
BRANCH   1  18
ATOM     18  C   UNL     1      -7.290   1.174 -31.323  1.00  0.00     0.331 C 
ATOM     19  O   UNL     1      -8.440   1.572 -31.426  1.00  0.00    -0.247 OA
BRANCH  18  20
ATOM     20  C   UNL     1      -6.096   2.013 -31.133  1.00  0.00     0.094 C 
ATOM     21  C   UNL     1      -5.961   2.740 -30.014  1.00  0.00     0.016 C 
BRANCH  21  22
ATOM     22  C   UNL     1      -4.814   3.618 -29.756  1.00  0.00    -0.021 A 
ATOM     23  C   UNL     1      -4.468   4.657 -30.636  1.00  0.00     0.058 A 
ATOM     24  C   UNL     1      -4.087   3.454 -28.566  1.00  0.00     0.012 A 
ATOM     25  C   UNL     1      -3.399   5.492 -30.327  1.00  0.00     0.157 A 
ATOM     26  C   UNL     1      -3.012   4.295 -28.266  1.00  0.00     0.051 A 
ATOM     27  C   UNL     1      -2.677   5.307 -29.152  1.00  0.00     0.157 A 
BRANCH  25  28
ATOM     28  O   UNL     1      -3.023   6.519 -31.147  1.00  0.00    -0.504 OA
ATOM     29  H   UNL     1      -3.779   7.122 -31.251  1.00  0.00     0.293 HD
ENDBRANCH  25  28
BRANCH  27  30
ATOM     30  O   UNL     1      -1.632   6.134 -28.855  1.00  0.00    -0.504 OA
ATOM     31  H   UNL     1      -2.045   7.009 -28.711  1.00  0.00     0.293 HD
ENDBRANCH  27  30
ENDBRANCH  21  22
ENDBRANCH  18  20
ENDBRANCH   1  18
TORSDOF 12
ENDMDL
MODEL 6
REMARK VINA RESULT:      -7.6      1.746      6.242
REMARK SMILES O=C(/C=C/c1ccc(O)c(O)c1)O[C@H](Cc1ccc(O)c(O)c1)C(=O)O
REMARK SMILES IDX 13 1 14 2 15 3 16 4 17 5 18 6 19 7 23 8 21 9 20 10 22 12
REMARK SMILES IDX 24 14 25 15 26 16 2 18 1 19 3 20 4 21 5 22 12 23 6 24 10 25
REMARK SMILES IDX 7 26 8 27 11 28 9 30
REMARK H PARENT 20 11 22 13 26 17 11 29 9 31
ROOT
ATOM      1  O   UNL     1      -4.325   1.722 -28.454  1.00  0.00    -0.447 OA
ENDROOT
BRANCH   1   2
ATOM      2  C   UNL     1      -3.736   0.479 -28.874  1.00  0.00     0.290 C 
BRANCH   2   3
ATOM      3  C   UNL     1      -4.258  -0.636 -27.952  1.00  0.00     0.093 C 
BRANCH   3   4
ATOM      4  C   UNL     1      -5.695  -1.017 -28.239  1.00  0.00    -0.040 A 
ATOM      5  C   UNL     1      -6.709  -0.703 -27.318  1.00  0.00     0.008 A 
ATOM      6  C   UNL     1      -8.042  -1.037 -27.577  1.00  0.00     0.050 A 
ATOM      7  C   UNL     1      -8.360  -1.685 -28.763  1.00  0.00     0.157 A 
ATOM      8  C   UNL     1      -6.034  -1.687 -29.424  1.00  0.00     0.054 A 
ATOM      9  C   UNL     1      -7.361  -2.006 -29.677  1.00  0.00     0.157 A 
BRANCH   7  10
ATOM     10  O   UNL     1      -9.645  -2.031 -29.078  1.00  0.00    -0.504 OA
ATOM     11  H   UNL     1      -9.666  -2.988 -29.253  1.00  0.00     0.293 HD
ENDBRANCH   7  10
BRANCH   9  12
ATOM     12  O   UNL     1      -7.681  -2.640 -30.843  1.00  0.00    -0.504 OA
ATOM     13  H   UNL     1      -6.868  -2.584 -31.384  1.00  0.00     0.293 HD
ENDBRANCH   9  12
ENDBRANCH   3   4
ENDBRANCH   2   3
BRANCH   2  14
ATOM     14  C   UNL     1      -2.202   0.523 -28.813  1.00  0.00     0.345 C 
ATOM     15  O   UNL     1      -1.462   0.236 -29.744  1.00  0.00    -0.248 OA
BRANCH  14  16
ATOM     16  O   UNL     1      -1.710   0.925 -27.617  1.00  0.00    -0.478 OA
ATOM     17  H   UNL     1      -0.737   1.101 -27.618  1.00  0.00     0.296 HD
ENDBRANCH  14  16
ENDBRANCH   2  14
ENDBRANCH   1   2
BRANCH   1  18
ATOM     18  C   UNL     1      -4.764   2.515 -29.457  1.00  0.00     0.331 C 
ATOM     19  O   UNL     1      -4.193   3.519 -29.855  1.00  0.00    -0.247 OA
BRANCH  18  20
ATOM     20  C   UNL     1      -6.058   2.004 -29.938  1.00  0.00     0.094 C 
ATOM     21  C   UNL     1      -6.223   1.727 -31.240  1.00  0.00     0.016 C 
BRANCH  21  22
ATOM     22  C   UNL     1      -7.485   1.236 -31.806  1.00  0.00    -0.021 A 
ATOM     23  C   UNL     1      -8.611   0.999 -31.001  1.00  0.00     0.058 A 
ATOM     24  C   UNL     1      -7.584   1.062 -33.196  1.00  0.00     0.012 A 
ATOM     25  C   UNL     1      -9.799   0.575 -31.589  1.00  0.00     0.157 A 
ATOM     26  C   UNL     1      -8.780   0.632 -33.777  1.00  0.00     0.051 A 
ATOM     27  C   UNL     1      -9.878   0.391 -32.966  1.00  0.00     0.157 A 
BRANCH  25  28
ATOM     28  O   UNL     1     -10.925   0.333 -30.852  1.00  0.00    -0.504 OA
ATOM     29  H   UNL     1     -10.662  -0.111 -30.027  1.00  0.00     0.293 HD
ENDBRANCH  25  28
BRANCH  27  30
ATOM     30  O   UNL     1     -11.048  -0.021 -33.534  1.00  0.00    -0.504 OA
ATOM     31  H   UNL     1     -11.511  -0.504 -32.820  1.00  0.00     0.293 HD
ENDBRANCH  27  30
ENDBRANCH  21  22
ENDBRANCH  18  20
ENDBRANCH   1  18
TORSDOF 12
ENDMDL
MODEL 7
REMARK VINA RESULT:      -7.6      2.410      4.954
REMARK SMILES O=C(/C=C/c1ccc(O)c(O)c1)O[C@H](Cc1ccc(O)c(O)c1)C(=O)O
REMARK SMILES IDX 13 1 14 2 15 3 16 4 17 5 18 6 19 7 23 8 21 9 20 10 22 12
REMARK SMILES IDX 24 14 25 15 26 16 2 18 1 19 3 20 4 21 5 22 12 23 6 24 10 25
REMARK SMILES IDX 7 26 8 27 11 28 9 30
REMARK H PARENT 20 11 22 13 26 17 11 29 9 31
ROOT
ATOM      1  O   UNL     1      -9.406  -2.265 -28.579  1.00  0.00    -0.447 OA
ENDROOT
BRANCH   1   2
ATOM      2  C   UNL     1      -8.873  -3.110 -29.612  1.00  0.00     0.290 C 
BRANCH   2   3
ATOM      3  C   UNL     1      -9.626  -2.805 -30.919  1.00  0.00     0.093 C 
BRANCH   3   4
ATOM      4  C   UNL     1      -9.294  -1.441 -31.487  1.00  0.00    -0.040 A 
ATOM      5  C   UNL     1      -7.956  -1.028 -31.605  1.00  0.00     0.008 A 
ATOM      6  C   UNL     1      -7.635   0.224 -32.139  1.00  0.00     0.050 A 
ATOM      7  C   UNL     1      -8.658   1.064 -32.558  1.00  0.00     0.157 A 
ATOM      8  C   UNL     1     -10.314  -0.571 -31.899  1.00  0.00     0.054 A 
ATOM      9  C   UNL     1      -9.987   0.665 -32.437  1.00  0.00     0.157 A 
BRANCH   7  10
ATOM     10  O   UNL     1      -8.410   2.297 -33.096  1.00  0.00    -0.504 OA
ATOM     11  H   UNL     1      -7.499   2.549 -32.865  1.00  0.00     0.293 HD
ENDBRANCH   7  10
BRANCH   9  12
ATOM     12  O   UNL     1     -10.988   1.495 -32.854  1.00  0.00    -0.504 OA
ATOM     13  H   UNL     1     -10.807   2.343 -32.401  1.00  0.00     0.293 HD
ENDBRANCH   9  12
ENDBRANCH   3   4
ENDBRANCH   2   3
BRANCH   2  14
ATOM     14  C   UNL     1      -9.022  -4.599 -29.268  1.00  0.00     0.345 C 
ATOM     15  O   UNL     1      -9.001  -5.507 -30.087  1.00  0.00    -0.248 OA
BRANCH  14  16
ATOM     16  O   UNL     1      -9.173  -4.846 -27.944  1.00  0.00    -0.478 OA
ATOM     17  H   UNL     1      -8.546  -5.520 -27.584  1.00  0.00     0.296 HD
ENDBRANCH  14  16
ENDBRANCH   2  14
ENDBRANCH   1   2
BRANCH   1  18
ATOM     18  C   UNL     1      -8.558  -2.003 -27.559  1.00  0.00     0.331 C 
ATOM     19  O   UNL     1      -8.790  -2.231 -26.381  1.00  0.00    -0.247 OA
BRANCH  18  20
ATOM     20  C   UNL     1      -7.352  -1.352 -28.096  1.00  0.00     0.094 C 
ATOM     21  C   UNL     1      -6.197  -2.029 -28.153  1.00  0.00     0.016 C 
BRANCH  21  22
ATOM     22  C   UNL     1      -4.945  -1.449 -28.652  1.00  0.00    -0.021 A 
ATOM     23  C   UNL     1      -4.620  -1.462 -30.019  1.00  0.00     0.058 A 
ATOM     24  C   UNL     1      -4.084  -0.807 -27.747  1.00  0.00     0.012 A 
ATOM     25  C   UNL     1      -3.442  -0.860 -30.451  1.00  0.00     0.157 A 
ATOM     26  C   UNL     1      -2.901  -0.210 -28.190  1.00  0.00     0.051 A 
ATOM     27  C   UNL     1      -2.591  -0.243 -29.540  1.00  0.00     0.157 A 
BRANCH  25  28
ATOM     28  O   UNL     1      -3.080  -0.843 -31.769  1.00  0.00    -0.504 OA
ATOM     29  H   UNL     1      -3.472  -0.055 -32.184  1.00  0.00     0.293 HD
ENDBRANCH  25  28
BRANCH  27  30
ATOM     30  O   UNL     1      -1.439   0.348 -29.973  1.00  0.00    -0.504 OA
ATOM     31  H   UNL     1      -1.351   1.149 -29.418  1.00  0.00     0.293 HD
ENDBRANCH  27  30
ENDBRANCH  21  22
ENDBRANCH  18  20
ENDBRANCH   1  18
TORSDOF 12
ENDMDL
MODEL 8
REMARK VINA RESULT:      -7.5      1.722      3.215
REMARK SMILES O=C(/C=C/c1ccc(O)c(O)c1)O[C@H](Cc1ccc(O)c(O)c1)C(=O)O
REMARK SMILES IDX 13 1 14 2 15 3 16 4 17 5 18 6 19 7 23 8 21 9 20 10 22 12
REMARK SMILES IDX 24 14 25 15 26 16 2 18 1 19 3 20 4 21 5 22 12 23 6 24 10 25
REMARK SMILES IDX 7 26 8 27 11 28 9 30
REMARK H PARENT 20 11 22 13 26 17 11 29 9 31
ROOT
ATOM      1  O   UNL     1      -9.234  -1.180 -30.728  1.00  0.00    -0.447 OA
ENDROOT
BRANCH   1   2
ATOM      2  C   UNL     1      -8.918  -0.211 -31.743  1.00  0.00     0.290 C 
BRANCH   2   3
ATOM      3  C   UNL     1      -8.939   1.185 -31.099  1.00  0.00     0.093 C 
BRANCH   3   4
ATOM      4  C   UNL     1      -7.552   1.733 -30.833  1.00  0.00    -0.040 A 
ATOM      5  C   UNL     1      -6.557   1.654 -31.822  1.00  0.00     0.008 A 
ATOM      6  C   UNL     1      -5.276   2.167 -31.594  1.00  0.00     0.050 A 
ATOM      7  C   UNL     1      -4.992   2.764 -30.373  1.00  0.00     0.157 A 
ATOM      8  C   UNL     1      -7.241   2.325 -29.599  1.00  0.00     0.054 A 
ATOM      9  C   UNL     1      -5.971   2.840 -29.386  1.00  0.00     0.157 A 
BRANCH   7  10
ATOM     10  O   UNL     1      -3.763   3.292 -30.092  1.00  0.00    -0.504 OA
ATOM     11  H   UNL     1      -3.104   2.580 -30.166  1.00  0.00     0.293 HD
ENDBRANCH   7  10
BRANCH   9  12
ATOM     12  O   UNL     1      -5.686   3.431 -28.188  1.00  0.00    -0.504 OA
ATOM     13  H   UNL     1      -6.555   3.715 -27.842  1.00  0.00     0.293 HD
ENDBRANCH   9  12
ENDBRANCH   3   4
ENDBRANCH   2   3
BRANCH   2  14
ATOM     14  C   UNL     1      -9.917  -0.256 -32.908  1.00  0.00     0.345 C 
ATOM     15  O   UNL     1      -9.639  -0.601 -34.048  1.00  0.00    -0.248 OA
BRANCH  14  16
ATOM     16  O   UNL     1     -11.175   0.116 -32.570  1.00  0.00    -0.478 OA
ATOM     17  H   UNL     1     -11.871  -0.544 -32.808  1.00  0.00     0.296 HD
ENDBRANCH  14  16
ENDBRANCH   2  14
ENDBRANCH   1   2
BRANCH   1  18
ATOM     18  C   UNL     1      -8.241  -2.049 -30.436  1.00  0.00     0.331 C 
ATOM     19  O   UNL     1      -8.265  -3.245 -30.681  1.00  0.00    -0.247 OA
BRANCH  18  20
ATOM     20  C   UNL     1      -7.169  -1.329 -29.730  1.00  0.00     0.094 C 
ATOM     21  C   UNL     1      -5.895  -1.482 -30.117  1.00  0.00     0.016 C 
BRANCH  21  22
ATOM     22  C   UNL     1      -4.765  -0.820 -29.455  1.00  0.00    -0.021 A 
ATOM     23  C   UNL     1      -4.861  -0.338 -28.139  1.00  0.00     0.058 A 
ATOM     24  C   UNL     1      -3.539  -0.727 -30.134  1.00  0.00     0.012 A 
ATOM     25  C   UNL     1      -3.750   0.243 -27.537  1.00  0.00     0.157 A 
ATOM     26  C   UNL     1      -2.429  -0.137 -29.522  1.00  0.00     0.051 A 
ATOM     27  C   UNL     1      -2.546   0.344 -28.228  1.00  0.00     0.157 A 
BRANCH  25  28
ATOM     28  O   UNL     1      -3.789   0.725 -26.258  1.00  0.00    -0.504 OA
ATOM     29  H   UNL     1      -4.363   0.145 -25.729  1.00  0.00     0.293 HD
ENDBRANCH  25  28
BRANCH  27  30
ATOM     30  O   UNL     1      -1.460   0.913 -27.628  1.00  0.00    -0.504 OA
ATOM     31  H   UNL     1      -1.838   1.564 -27.003  1.00  0.00     0.293 HD
ENDBRANCH  27  30
ENDBRANCH  21  22
ENDBRANCH  18  20
ENDBRANCH   1  18
TORSDOF 12
ENDMDL
MODEL 9
REMARK VINA RESULT:      -7.5      1.801      6.098
REMARK SMILES O=C(/C=C/c1ccc(O)c(O)c1)O[C@H](Cc1ccc(O)c(O)c1)C(=O)O
REMARK SMILES IDX 13 1 14 2 15 3 16 4 17 5 18 6 19 7 23 8 21 9 20 10 22 12
REMARK SMILES IDX 24 14 25 15 26 16 2 18 1 19 3 20 4 21 5 22 12 23 6 24 10 25
REMARK SMILES IDX 7 26 8 27 11 28 9 30
REMARK H PARENT 20 11 22 13 26 17 11 29 9 31
ROOT
ATOM      1  O   UNL     1      -4.011   1.226 -30.311  1.00  0.00    -0.447 OA
ENDROOT
BRANCH   1   2
ATOM      2  C   UNL     1      -4.102   1.106 -28.881  1.00  0.00     0.290 C 
BRANCH   2   3
ATOM      3  C   UNL     1      -5.417   1.761 -28.425  1.00  0.00     0.093 C 
BRANCH   3   4
ATOM      4  C   UNL     1      -6.354   0.790 -27.739  1.00  0.00    -0.040 A 
ATOM      5  C   UNL     1      -7.669   0.623 -28.207  1.00  0.00     0.008 A 
ATOM      6  C   UNL     1      -8.542  -0.280 -27.590  1.00  0.00     0.050 A 
ATOM      7  C   UNL     1      -8.094  -1.020 -26.504  1.00  0.00     0.157 A 
ATOM      8  C   UNL     1      -5.927   0.045 -26.630  1.00  0.00     0.054 A 
ATOM      9  C   UNL     1      -6.796  -0.856 -26.031  1.00  0.00     0.157 A 
BRANCH   7  10
ATOM     10  O   UNL     1      -8.895  -1.925 -25.864  1.00  0.00    -0.504 OA
ATOM     11  H   UNL     1      -8.348  -2.690 -25.616  1.00  0.00     0.293 HD
ENDBRANCH   7  10
BRANCH   9  12
ATOM     12  O   UNL     1      -6.361  -1.589 -24.964  1.00  0.00    -0.504 OA
ATOM     13  H   UNL     1      -6.652  -1.080 -24.182  1.00  0.00     0.293 HD
ENDBRANCH   9  12
ENDBRANCH   3   4
ENDBRANCH   2   3
BRANCH   2  14
ATOM     14  C   UNL     1      -2.918   1.781 -28.173  1.00  0.00     0.345 C 
ATOM     15  O   UNL     1      -1.899   1.204 -27.822  1.00  0.00    -0.248 OA
BRANCH  14  16
ATOM     16  O   UNL     1      -3.084   3.110 -27.968  1.00  0.00    -0.478 OA
ATOM     17  H   UNL     1      -4.017   3.421 -28.066  1.00  0.00     0.296 HD
ENDBRANCH  14  16
ENDBRANCH   2  14
ENDBRANCH   1   2
BRANCH   1  18
ATOM     18  C   UNL     1      -4.108   0.062 -30.991  1.00  0.00     0.331 C 
ATOM     19  O   UNL     1      -3.162  -0.565 -31.442  1.00  0.00    -0.247 OA
BRANCH  18  20
ATOM     20  C   UNL     1      -5.530  -0.285 -31.143  1.00  0.00     0.094 C 
ATOM     21  C   UNL     1      -6.357   0.554 -31.785  1.00  0.00     0.016 C 
BRANCH  21  22
ATOM     22  C   UNL     1      -7.791   0.296 -31.961  1.00  0.00    -0.021 A 
ATOM     23  C   UNL     1      -8.670   1.295 -32.410  1.00  0.00     0.058 A 
ATOM     24  C   UNL     1      -8.280  -1.001 -31.737  1.00  0.00     0.012 A 
ATOM     25  C   UNL     1     -10.014   0.992 -32.605  1.00  0.00     0.157 A 
ATOM     26  C   UNL     1      -9.633  -1.296 -31.931  1.00  0.00     0.051 A 
ATOM     27  C   UNL     1     -10.488  -0.294 -32.363  1.00  0.00     0.157 A 
BRANCH  25  28
ATOM     28  O   UNL     1     -10.911   1.926 -33.043  1.00  0.00    -0.504 OA
ATOM     29  H   UNL     1     -11.726   1.836 -32.521  1.00  0.00     0.293 HD
ENDBRANCH  25  28
BRANCH  27  30
ATOM     30  O   UNL     1     -11.807  -0.584 -32.560  1.00  0.00    -0.504 OA
ATOM     31  H   UNL     1     -12.243  -0.324 -31.723  1.00  0.00     0.293 HD
ENDBRANCH  27  30
ENDBRANCH  21  22
ENDBRANCH  18  20
ENDBRANCH   1  18
TORSDOF 12
ENDMDL
MODEL 10
REMARK VINA RESULT:      -7.5      2.503      6.564
REMARK SMILES O=C(/C=C/c1ccc(O)c(O)c1)O[C@H](Cc1ccc(O)c(O)c1)C(=O)O
REMARK SMILES IDX 13 1 14 2 15 3 16 4 17 5 18 6 19 7 23 8 21 9 20 10 22 12
REMARK SMILES IDX 24 14 25 15 26 16 2 18 1 19 3 20 4 21 5 22 12 23 6 24 10 25
REMARK SMILES IDX 7 26 8 27 11 28 9 30
REMARK H PARENT 20 11 22 13 26 17 11 29 9 31
ROOT
ATOM      1  O   UNL     1      -4.724  -0.108 -30.936  1.00  0.00    -0.447 OA
ENDROOT
BRANCH   1   2
ATOM      2  C   UNL     1      -5.661   0.982 -30.901  1.00  0.00     0.290 C 
BRANCH   2   3
ATOM      3  C   UNL     1      -6.255   1.151 -32.310  1.00  0.00     0.093 C 
BRANCH   3   4
ATOM      4  C   UNL     1      -7.696   0.697 -32.402  1.00  0.00    -0.040 A 
ATOM      5  C   UNL     1      -8.036  -0.641 -32.135  1.00  0.00     0.008 A 
ATOM      6  C   UNL     1      -9.366  -1.071 -32.204  1.00  0.00     0.050 A 
ATOM      7  C   UNL     1     -10.357  -0.158 -32.538  1.00  0.00     0.157 A 
ATOM      8  C   UNL     1      -8.710   1.600 -32.754  1.00  0.00     0.054 A 
ATOM      9  C   UNL     1     -10.027   1.167 -32.810  1.00  0.00     0.157 A 
BRANCH   7  10
ATOM     10  O   UNL     1     -11.675  -0.514 -32.613  1.00  0.00    -0.504 OA
ATOM     11  H   UNL     1     -12.007  -0.258 -33.492  1.00  0.00     0.293 HD
ENDBRANCH   7  10
BRANCH   9  12
ATOM     12  O   UNL     1     -11.007   2.060 -33.135  1.00  0.00    -0.504 OA
ATOM     13  H   UNL     1     -10.549   2.747 -33.658  1.00  0.00     0.293 HD
ENDBRANCH   9  12
ENDBRANCH   3   4
ENDBRANCH   2   3
BRANCH   2  14
ATOM     14  C   UNL     1      -4.996   2.295 -30.462  1.00  0.00     0.345 C 
ATOM     15  O   UNL     1      -5.551   3.384 -30.452  1.00  0.00    -0.248 OA
BRANCH  14  16
ATOM     16  O   UNL     1      -3.709   2.153 -30.061  1.00  0.00    -0.478 OA
ATOM     17  H   UNL     1      -3.209   3.003 -29.998  1.00  0.00     0.296 HD
ENDBRANCH  14  16
ENDBRANCH   2  14
ENDBRANCH   1   2
BRANCH   1  18
ATOM     18  C   UNL     1      -4.692  -0.872 -29.821  1.00  0.00     0.331 C 
ATOM     19  O   UNL     1      -3.826  -0.819 -28.962  1.00  0.00    -0.247 OA
BRANCH  18  20
ATOM     20  C   UNL     1      -5.831  -1.805 -29.849  1.00  0.00     0.094 C 
ATOM     21  C   UNL     1      -6.730  -1.790 -28.855  1.00  0.00     0.016 C 
BRANCH  21  22
ATOM     22  C   UNL     1      -7.881  -2.699 -28.794  1.00  0.00    -0.021 A 
ATOM     23  C   UNL     1      -7.968  -3.833 -29.619  1.00  0.00     0.058 A 
ATOM     24  C   UNL     1      -8.884  -2.463 -27.840  1.00  0.00     0.012 A 
ATOM     25  C   UNL     1      -9.057  -4.691 -29.494  1.00  0.00     0.157 A 
ATOM     26  C   UNL     1      -9.976  -3.328 -27.726  1.00  0.00     0.051 A 
ATOM     27  C   UNL     1     -10.052  -4.435 -28.556  1.00  0.00     0.157 A 
BRANCH  25  28
ATOM     28  O   UNL     1      -9.189  -5.809 -30.270  1.00  0.00    -0.504 OA
ATOM     29  H   UNL     1      -8.327  -6.258 -30.311  1.00  0.00     0.293 HD
ENDBRANCH  25  28
BRANCH  27  30
ATOM     30  O   UNL     1     -11.115  -5.283 -28.439  1.00  0.00    -0.504 OA
ATOM     31  H   UNL     1     -10.764  -6.155 -28.713  1.00  0.00     0.293 HD
ENDBRANCH  27  30
ENDBRANCH  21  22
ENDBRANCH  18  20
ENDBRANCH   1  18
TORSDOF 12
ENDMDL
