MODEL 1
REMARK VINA RESULT:      -8.1      0.000      0.000
REMARK SMILES O=C(C=Cc1ccc(O)c(O)c1)O[C@@H](Cc1ccc(O)c(O)c1)C(=O)O
REMARK SMILES IDX 13 1 14 2 15 3 16 4 17 5 18 6 19 7 23 8 21 9 20 10 22 12
REMARK SMILES IDX 24 14 25 15 26 16 2 18 1 19 3 20 4 21 5 22 12 23 6 24 10 25
REMARK SMILES IDX 7 26 8 27 11 28 9 30
REMARK H PARENT 20 11 22 13 26 17 11 29 9 31
ROOT
ATOM      1  O   UNL     1      -8.699  -0.831 -32.447  1.00  0.00    -0.447 OA
ENDROOT
BRANCH   1   2
ATOM      2  C   UNL     1      -9.201   0.481 -32.107  1.00  0.00     0.290 C 
BRANCH   2   3
ATOM      3  C   UNL     1      -8.264   1.599 -32.589  1.00  0.00     0.093 C 
BRANCH   3   4
ATOM      4  C   UNL     1      -6.993   1.721 -31.774  1.00  0.00    -0.040 A 
ATOM      5  C   UNL     1      -6.996   2.412 -30.549  1.00  0.00     0.008 A 
ATOM      6  C   UNL     1      -5.820   2.560 -29.807  1.00  0.00     0.050 A 
ATOM      7  C   UNL     1      -4.638   2.017 -30.295  1.00  0.00     0.157 A 
ATOM      8  C   UNL     1      -5.792   1.173 -32.245  1.00  0.00     0.054 A 
ATOM      9  C   UNL     1      -4.629   1.331 -31.506  1.00  0.00     0.157 A 
BRANCH   7  10
ATOM     10  O   UNL     1      -3.455   2.134 -29.621  1.00  0.00    -0.504 OA
ATOM     11  H   UNL     1      -2.854   1.441 -29.944  1.00  0.00     0.293 HD
ENDBRANCH   7  10
BRANCH   9  12
ATOM     12  O   UNL     1      -3.463   0.806 -31.985  1.00  0.00    -0.504 OA
ATOM     13  H   UNL     1      -3.300   1.294 -32.817  1.00  0.00     0.293 HD
ENDBRANCH   9  12
ENDBRANCH   3   4
ENDBRANCH   2   3
BRANCH   2  14
ATOM     14  C   UNL     1     -10.590   0.651 -32.717  1.00  0.00     0.345 C 
ATOM     15  O   UNL     1     -11.361  -0.271 -32.944  1.00  0.00    -0.248 OA
BRANCH  14  16
ATOM     16  O   UNL     1     -10.908   1.943 -32.982  1.00  0.00    -0.478 OA
ATOM     17  H   UNL     1     -10.242   2.332 -33.588  1.00  0.00     0.296 HD
ENDBRANCH  14  16
ENDBRANCH   2  14
ENDBRANCH   1   2
BRANCH   1  18
ATOM     18  C   UNL     1      -8.760  -1.739 -31.441  1.00  0.00     0.331 C 
ATOM     19  O   UNL     1      -9.300  -2.830 -31.485  1.00  0.00    -0.247 OA
BRANCH  18  20
ATOM     20  C   UNL     1      -8.067  -1.172 -30.268  1.00  0.00     0.094 C 
ATOM     21  C   UNL     1      -6.833  -1.600 -29.956  1.00  0.00     0.016 C 
BRANCH  21  22
ATOM     22  C   UNL     1      -6.058  -1.093 -28.815  1.00  0.00    -0.021 A 
ATOM     23  C   UNL     1      -6.713  -0.306 -27.854  1.00  0.00     0.058 A 
ATOM     24  C   UNL     1      -4.678  -1.328 -28.687  1.00  0.00     0.012 A 
ATOM     25  C   UNL     1      -5.995   0.203 -26.776  1.00  0.00     0.157 A 
ATOM     26  C   UNL     1      -3.966  -0.813 -27.600  1.00  0.00     0.051 A 
ATOM     27  C   UNL     1      -4.633  -0.054 -26.652  1.00  0.00     0.157 A 
BRANCH  25  28
ATOM     28  O   UNL     1      -6.587   0.969 -25.809  1.00  0.00    -0.504 OA
ATOM     29  H   UNL     1      -7.552   0.896 -25.910  1.00  0.00     0.293 HD
ENDBRANCH  25  28
BRANCH  27  30
ATOM     30  O   UNL     1      -3.936   0.451 -25.592  1.00  0.00    -0.504 OA
ATOM     31  H   UNL     1      -3.057   0.672 -25.958  1.00  0.00     0.293 HD
ENDBRANCH  27  30
ENDBRANCH  21  22
ENDBRANCH  18  20
ENDBRANCH   1  18
TORSDOF 12
ENDMDL
MODEL 2
REMARK VINA RESULT:      -8.0      0.953      1.569
REMARK SMILES O=C(C=Cc1ccc(O)c(O)c1)O[C@@H](Cc1ccc(O)c(O)c1)C(=O)O
REMARK SMILES IDX 13 1 14 2 15 3 16 4 17 5 18 6 19 7 23 8 21 9 20 10 22 12
REMARK SMILES IDX 24 14 25 15 26 16 2 18 1 19 3 20 4 21 5 22 12 23 6 24 10 25
REMARK SMILES IDX 7 26 8 27 11 28 9 30
REMARK H PARENT 20 11 22 13 26 17 11 29 9 31
ROOT
ATOM      1  O   UNL     1      -9.117  -1.480 -32.337  1.00  0.00    -0.447 OA
ENDROOT
BRANCH   1   2
ATOM      2  C   UNL     1      -9.373  -0.065 -32.185  1.00  0.00     0.290 C 
BRANCH   2   3
ATOM      3  C   UNL     1      -8.387   0.788 -32.997  1.00  0.00     0.093 C 
BRANCH   3   4
ATOM      4  C   UNL     1      -7.216   1.303 -32.186  1.00  0.00    -0.040 A 
ATOM      5  C   UNL     1      -7.433   2.093 -31.043  1.00  0.00     0.008 A 
ATOM      6  C   UNL     1      -6.357   2.601 -30.309  1.00  0.00     0.050 A 
ATOM      7  C   UNL     1      -5.061   2.321 -30.722  1.00  0.00     0.157 A 
ATOM      8  C   UNL     1      -5.900   1.024 -32.582  1.00  0.00     0.054 A 
ATOM      9  C   UNL     1      -4.839   1.539 -31.852  1.00  0.00     0.157 A 
BRANCH   7  10
ATOM     10  O   UNL     1      -3.969   2.794 -30.052  1.00  0.00    -0.504 OA
ATOM     11  H   UNL     1      -3.251   2.144 -30.147  1.00  0.00     0.293 HD
ENDBRANCH   7  10
BRANCH   9  12
ATOM     12  O   UNL     1      -3.563   1.272 -32.259  1.00  0.00    -0.504 OA
ATOM     13  H   UNL     1      -3.017   1.943 -31.800  1.00  0.00     0.293 HD
ENDBRANCH   9  12
ENDBRANCH   3   4
ENDBRANCH   2   3
BRANCH   2  14
ATOM     14  C   UNL     1     -10.808   0.225 -32.615  1.00  0.00     0.345 C 
ATOM     15  O   UNL     1     -11.694  -0.616 -32.674  1.00  0.00    -0.248 OA
BRANCH  14  16
ATOM     16  O   UNL     1     -11.025   1.529 -32.921  1.00  0.00    -0.478 OA
ATOM     17  H   UNL     1     -10.935   1.663 -33.889  1.00  0.00     0.296 HD
ENDBRANCH  14  16
ENDBRANCH   2  14
ENDBRANCH   1   2
BRANCH   1  18
ATOM     18  C   UNL     1      -9.119  -2.184 -31.176  1.00  0.00     0.331 C 
ATOM     19  O   UNL     1      -9.721  -3.221 -30.964  1.00  0.00    -0.247 OA
BRANCH  18  20
ATOM     20  C   UNL     1      -8.275  -1.467 -30.202  1.00  0.00     0.094 C 
ATOM     21  C   UNL     1      -6.951  -1.685 -30.184  1.00  0.00     0.016 C 
BRANCH  21  22
ATOM     22  C   UNL     1      -6.026  -1.016 -29.260  1.00  0.00    -0.021 A 
ATOM     23  C   UNL     1      -4.645  -1.129 -29.489  1.00  0.00     0.058 A 
ATOM     24  C   UNL     1      -6.478  -0.314 -28.129  1.00  0.00     0.012 A 
ATOM     25  C   UNL     1      -3.749  -0.523 -28.615  1.00  0.00     0.157 A 
ATOM     26  C   UNL     1      -5.571   0.293 -27.256  1.00  0.00     0.051 A 
ATOM     27  C   UNL     1      -4.213   0.186 -27.510  1.00  0.00     0.157 A 
BRANCH  25  28
ATOM     28  O   UNL     1      -2.396  -0.596 -28.798  1.00  0.00    -0.504 OA
ATOM     29  H   UNL     1      -2.079  -1.430 -28.410  1.00  0.00     0.293 HD
ENDBRANCH  25  28
BRANCH  27  30
ATOM     30  O   UNL     1      -3.327   0.777 -26.657  1.00  0.00    -0.504 OA
ATOM     31  H   UNL     1      -2.616   0.115 -26.543  1.00  0.00     0.293 HD
ENDBRANCH  27  30
ENDBRANCH  21  22
ENDBRANCH  18  20
ENDBRANCH   1  18
TORSDOF 12
ENDMDL
MODEL 3
REMARK VINA RESULT:      -7.9      1.656      6.731
REMARK SMILES O=C(C=Cc1ccc(O)c(O)c1)O[C@@H](Cc1ccc(O)c(O)c1)C(=O)O
REMARK SMILES IDX 13 1 14 2 15 3 16 4 17 5 18 6 19 7 23 8 21 9 20 10 22 12
REMARK SMILES IDX 24 14 25 15 26 16 2 18 1 19 3 20 4 21 5 22 12 23 6 24 10 25
REMARK SMILES IDX 7 26 8 27 11 28 9 30
REMARK H PARENT 20 11 22 13 26 17 11 29 9 31
ROOT
ATOM      1  O   UNL     1      -4.479   1.238 -29.512  1.00  0.00    -0.447 OA
ENDROOT
BRANCH   1   2
ATOM      2  C   UNL     1      -3.088   0.892 -29.702  1.00  0.00     0.290 C 
BRANCH   2   3
ATOM      3  C   UNL     1      -2.479   0.246 -28.448  1.00  0.00     0.093 C 
BRANCH   3   4
ATOM      4  C   UNL     1      -3.509  -0.313 -27.490  1.00  0.00    -0.040 A 
ATOM      5  C   UNL     1      -4.182  -1.512 -27.786  1.00  0.00     0.008 A 
ATOM      6  C   UNL     1      -5.160  -2.017 -26.924  1.00  0.00     0.050 A 
ATOM      7  C   UNL     1      -5.466  -1.318 -25.763  1.00  0.00     0.157 A 
ATOM      8  C   UNL     1      -3.826   0.373 -26.309  1.00  0.00     0.054 A 
ATOM      9  C   UNL     1      -4.803  -0.132 -25.463  1.00  0.00     0.157 A 
BRANCH   7  10
ATOM     10  O   UNL     1      -6.416  -1.756 -24.884  1.00  0.00    -0.504 OA
ATOM     11  H   UNL     1      -6.252  -1.330 -24.025  1.00  0.00     0.293 HD
ENDBRANCH   7  10
BRANCH   9  12
ATOM     12  O   UNL     1      -5.114   0.555 -24.324  1.00  0.00    -0.504 OA
ATOM     13  H   UNL     1      -6.083   0.681 -24.374  1.00  0.00     0.293 HD
ENDBRANCH   9  12
ENDBRANCH   3   4
ENDBRANCH   2   3
BRANCH   2  14
ATOM     14  C   UNL     1      -2.975  -0.053 -30.896  1.00  0.00     0.345 C 
ATOM     15  O   UNL     1      -3.829  -0.869 -31.213  1.00  0.00    -0.248 OA
BRANCH  14  16
ATOM     16  O   UNL     1      -1.825   0.102 -31.598  1.00  0.00    -0.478 OA
ATOM     17  H   UNL     1      -1.066  -0.228 -31.071  1.00  0.00     0.296 HD
ENDBRANCH  14  16
ENDBRANCH   2  14
ENDBRANCH   1   2
BRANCH   1  18
ATOM     18  C   UNL     1      -4.889   2.332 -30.203  1.00  0.00     0.331 C 
ATOM     19  O   UNL     1      -4.331   3.413 -30.239  1.00  0.00    -0.247 OA
BRANCH  18  20
ATOM     20  C   UNL     1      -6.145   1.991 -30.899  1.00  0.00     0.094 C 
ATOM     21  C   UNL     1      -6.857   0.926 -30.499  1.00  0.00     0.016 C 
BRANCH  21  22
ATOM     22  C   UNL     1      -8.121   0.510 -31.121  1.00  0.00    -0.021 A 
ATOM     23  C   UNL     1      -8.901   1.478 -31.774  1.00  0.00     0.058 A 
ATOM     24  C   UNL     1      -8.596  -0.811 -31.037  1.00  0.00     0.012 A 
ATOM     25  C   UNL     1     -10.113   1.112 -32.351  1.00  0.00     0.157 A 
ATOM     26  C   UNL     1      -9.814  -1.169 -31.621  1.00  0.00     0.051 A 
ATOM     27  C   UNL     1     -10.560  -0.204 -32.277  1.00  0.00     0.157 A 
BRANCH  25  28
ATOM     28  O   UNL     1     -10.905   2.015 -33.005  1.00  0.00    -0.504 OA
ATOM     29  H   UNL     1     -10.563   2.908 -32.825  1.00  0.00     0.293 HD
ENDBRANCH  25  28
BRANCH  27  30
ATOM     30  O   UNL     1     -11.751  -0.553 -32.846  1.00  0.00    -0.504 OA
ATOM     31  H   UNL     1     -12.284   0.266 -32.822  1.00  0.00     0.293 HD
ENDBRANCH  27  30
ENDBRANCH  21  22
ENDBRANCH  18  20
ENDBRANCH   1  18
TORSDOF 12
ENDMDL
MODEL 4
REMARK VINA RESULT:      -7.8      2.323      4.468
REMARK SMILES O=C(C=Cc1ccc(O)c(O)c1)O[C@@H](Cc1ccc(O)c(O)c1)C(=O)O
REMARK SMILES IDX 13 1 14 2 15 3 16 4 17 5 18 6 19 7 23 8 21 9 20 10 22 12
REMARK SMILES IDX 24 14 25 15 26 16 2 18 1 19 3 20 4 21 5 22 12 23 6 24 10 25
REMARK SMILES IDX 7 26 8 27 11 28 9 30
REMARK H PARENT 20 11 22 13 26 17 11 29 9 31
ROOT
ATOM      1  O   UNL     1      -8.500   1.602 -32.235  1.00  0.00    -0.447 OA
ENDROOT
BRANCH   1   2
ATOM      2  C   UNL     1      -9.389   0.472 -32.083  1.00  0.00     0.290 C 
BRANCH   2   3
ATOM      3  C   UNL     1      -9.844   0.290 -30.627  1.00  0.00     0.093 C 
BRANCH   3   4
ATOM      4  C   UNL     1      -9.459  -1.048 -30.032  1.00  0.00    -0.040 A 
ATOM      5  C   UNL     1      -9.067  -2.112 -30.864  1.00  0.00     0.008 A 
ATOM      6  C   UNL     1      -8.743  -3.362 -30.326  1.00  0.00     0.050 A 
ATOM      7  C   UNL     1      -8.816  -3.546 -28.951  1.00  0.00     0.157 A 
ATOM      8  C   UNL     1      -9.517  -1.253 -28.646  1.00  0.00     0.054 A 
ATOM      9  C   UNL     1      -9.202  -2.497 -28.121  1.00  0.00     0.157 A 
BRANCH   7  10
ATOM     10  O   UNL     1      -8.519  -4.745 -28.365  1.00  0.00    -0.504 OA
ATOM     11  H   UNL     1      -7.583  -4.943 -28.542  1.00  0.00     0.293 HD
ENDBRANCH   7  10
BRANCH   9  12
ATOM     12  O   UNL     1      -9.278  -2.687 -26.772  1.00  0.00    -0.504 OA
ATOM     13  H   UNL     1      -8.870  -1.883 -26.390  1.00  0.00     0.293 HD
ENDBRANCH   9  12
ENDBRANCH   3   4
ENDBRANCH   2   3
BRANCH   2  14
ATOM     14  C   UNL     1     -10.595   0.669 -32.997  1.00  0.00     0.345 C 
ATOM     15  O   UNL     1     -11.164  -0.236 -33.591  1.00  0.00    -0.248 OA
BRANCH  14  16
ATOM     16  O   UNL     1     -10.998   1.961 -33.087  1.00  0.00    -0.478 OA
ATOM     17  H   UNL     1     -10.875   2.285 -34.005  1.00  0.00     0.296 HD
ENDBRANCH  14  16
ENDBRANCH   2  14
ENDBRANCH   1   2
BRANCH   1  18
ATOM     18  C   UNL     1      -7.355   1.335 -32.913  1.00  0.00     0.331 C 
ATOM     19  O   UNL     1      -7.272   0.982 -34.075  1.00  0.00    -0.247 OA
BRANCH  18  20
ATOM     20  C   UNL     1      -6.218   1.533 -31.993  1.00  0.00     0.094 C 
ATOM     21  C   UNL     1      -5.769   0.500 -31.262  1.00  0.00     0.016 C 
BRANCH  21  22
ATOM     22  C   UNL     1      -4.641   0.593 -30.326  1.00  0.00    -0.021 A 
ATOM     23  C   UNL     1      -4.500   1.759 -29.556  1.00  0.00     0.058 A 
ATOM     24  C   UNL     1      -3.675  -0.422 -30.218  1.00  0.00     0.012 A 
ATOM     25  C   UNL     1      -3.427   1.879 -28.678  1.00  0.00     0.157 A 
ATOM     26  C   UNL     1      -2.601  -0.293 -29.332  1.00  0.00     0.051 A 
ATOM     27  C   UNL     1      -2.489   0.857 -28.568  1.00  0.00     0.157 A 
BRANCH  25  28
ATOM     28  O   UNL     1      -3.249   2.990 -27.901  1.00  0.00    -0.504 OA
ATOM     29  H   UNL     1      -2.373   2.934 -27.483  1.00  0.00     0.293 HD
ENDBRANCH  25  28
BRANCH  27  30
ATOM     30  O   UNL     1      -1.439   0.984 -27.704  1.00  0.00    -0.504 OA
ATOM     31  H   UNL     1      -1.769   0.617 -26.860  1.00  0.00     0.293 HD
ENDBRANCH  27  30
ENDBRANCH  21  22
ENDBRANCH  18  20
ENDBRANCH   1  18
TORSDOF 12
ENDMDL
MODEL 5
REMARK VINA RESULT:      -7.7      2.528      5.951
REMARK SMILES O=C(C=Cc1ccc(O)c(O)c1)O[C@@H](Cc1ccc(O)c(O)c1)C(=O)O
REMARK SMILES IDX 13 1 14 2 15 3 16 4 17 5 18 6 19 7 23 8 21 9 20 10 22 12
REMARK SMILES IDX 24 14 25 15 26 16 2 18 1 19 3 20 4 21 5 22 12 23 6 24 10 25
REMARK SMILES IDX 7 26 8 27 11 28 9 30
REMARK H PARENT 20 11 22 13 26 17 11 29 9 31
ROOT
ATOM      1  O   UNL     1      -5.655   0.118 -29.486  1.00  0.00    -0.447 OA
ENDROOT
BRANCH   1   2
ATOM      2  C   UNL     1      -5.429  -0.106 -30.897  1.00  0.00     0.290 C 
BRANCH   2   3
ATOM      3  C   UNL     1      -6.199   0.897 -31.769  1.00  0.00     0.093 C 
BRANCH   3   4
ATOM      4  C   UNL     1      -7.646   0.517 -32.000  1.00  0.00    -0.040 A 
ATOM      5  C   UNL     1      -8.061  -0.820 -31.875  1.00  0.00     0.008 A 
ATOM      6  C   UNL     1      -9.389  -1.185 -32.121  1.00  0.00     0.050 A 
ATOM      7  C   UNL     1     -10.302  -0.208 -32.495  1.00  0.00     0.157 A 
ATOM      8  C   UNL     1      -8.585   1.491 -32.371  1.00  0.00     0.054 A 
ATOM      9  C   UNL     1      -9.898   1.119 -32.620  1.00  0.00     0.157 A 
BRANCH   7  10
ATOM     10  O   UNL     1     -11.611  -0.501 -32.756  1.00  0.00    -0.504 OA
ATOM     11  H   UNL     1     -11.792  -1.395 -32.418  1.00  0.00     0.293 HD
ENDBRANCH   7  10
BRANCH   9  12
ATOM     12  O   UNL     1     -10.798   2.074 -32.995  1.00  0.00    -0.504 OA
ATOM     13  H   UNL     1     -10.824   2.013 -33.972  1.00  0.00     0.293 HD
ENDBRANCH   9  12
ENDBRANCH   3   4
ENDBRANCH   2   3
BRANCH   2  14
ATOM     14  C   UNL     1      -3.931  -0.015 -31.176  1.00  0.00     0.345 C 
ATOM     15  O   UNL     1      -3.254  -0.935 -31.611  1.00  0.00    -0.248 OA
BRANCH  14  16
ATOM     16  O   UNL     1      -3.406   1.206 -30.905  1.00  0.00    -0.478 OA
ATOM     17  H   UNL     1      -2.460   1.115 -30.660  1.00  0.00     0.296 HD
ENDBRANCH  14  16
ENDBRANCH   2  14
ENDBRANCH   1   2
BRANCH   1  18
ATOM     18  C   UNL     1      -5.304  -0.919 -28.685  1.00  0.00     0.331 C 
ATOM     19  O   UNL     1      -4.391  -0.930 -27.879  1.00  0.00    -0.247 OA
BRANCH  18  20
ATOM     20  C   UNL     1      -6.214  -2.046 -28.966  1.00  0.00     0.094 C 
ATOM     21  C   UNL     1      -7.450  -2.047 -28.441  1.00  0.00     0.016 C 
BRANCH  21  22
ATOM     22  C   UNL     1      -8.431  -3.117 -28.667  1.00  0.00    -0.021 A 
ATOM     23  C   UNL     1      -9.480  -3.275 -27.747  1.00  0.00     0.058 A 
ATOM     24  C   UNL     1      -8.320  -4.015 -29.743  1.00  0.00     0.012 A 
ATOM     25  C   UNL     1     -10.408  -4.295 -27.929  1.00  0.00     0.157 A 
ATOM     26  C   UNL     1      -9.258  -5.037 -29.918  1.00  0.00     0.051 A 
ATOM     27  C   UNL     1     -10.297  -5.164 -29.010  1.00  0.00     0.157 A 
BRANCH  25  28
ATOM     28  O   UNL     1     -11.453  -4.485 -27.067  1.00  0.00    -0.504 OA
ATOM     29  H   UNL     1     -11.269  -3.989 -26.250  1.00  0.00     0.293 HD
ENDBRANCH  25  28
BRANCH  27  30
ATOM     30  O   UNL     1     -11.212  -6.163 -29.180  1.00  0.00    -0.504 OA
ATOM     31  H   UNL     1     -10.681  -6.942 -29.439  1.00  0.00     0.293 HD
ENDBRANCH  27  30
ENDBRANCH  21  22
ENDBRANCH  18  20
ENDBRANCH   1  18
TORSDOF 12
ENDMDL
MODEL 6
REMARK VINA RESULT:      -7.6      2.129      4.475
REMARK SMILES O=C(C=Cc1ccc(O)c(O)c1)O[C@@H](Cc1ccc(O)c(O)c1)C(=O)O
REMARK SMILES IDX 13 1 14 2 15 3 16 4 17 5 18 6 19 7 23 8 21 9 20 10 22 12
REMARK SMILES IDX 24 14 25 15 26 16 2 18 1 19 3 20 4 21 5 22 12 23 6 24 10 25
REMARK SMILES IDX 7 26 8 27 11 28 9 30
REMARK H PARENT 20 11 22 13 26 17 11 29 9 31
ROOT
ATOM      1  O   UNL     1      -8.576   1.556 -32.225  1.00  0.00    -0.447 OA
ENDROOT
BRANCH   1   2
ATOM      2  C   UNL     1      -9.448   0.426 -31.997  1.00  0.00     0.290 C 
BRANCH   2   3
ATOM      3  C   UNL     1      -9.846   0.295 -30.518  1.00  0.00     0.093 C 
BRANCH   3   4
ATOM      4  C   UNL     1      -9.542  -1.065 -29.925  1.00  0.00    -0.040 A 
ATOM      5  C   UNL     1      -9.741  -1.305 -28.554  1.00  0.00     0.008 A 
ATOM      6  C   UNL     1      -9.431  -2.547 -27.991  1.00  0.00     0.050 A 
ATOM      7  C   UNL     1      -8.917  -3.549 -28.803  1.00  0.00     0.157 A 
ATOM      8  C   UNL     1      -9.031  -2.093 -30.730  1.00  0.00     0.054 A 
ATOM      9  C   UNL     1      -8.719  -3.319 -30.162  1.00  0.00     0.157 A 
BRANCH   7  10
ATOM     10  O   UNL     1      -8.588  -4.781 -28.312  1.00  0.00    -0.504 OA
ATOM     11  H   UNL     1      -7.874  -5.145 -28.864  1.00  0.00     0.293 HD
ENDBRANCH   7  10
BRANCH   9  12
ATOM     12  O   UNL     1      -8.206  -4.306 -30.954  1.00  0.00    -0.504 OA
ATOM     13  H   UNL     1      -7.276  -4.394 -30.661  1.00  0.00     0.293 HD
ENDBRANCH   9  12
ENDBRANCH   3   4
ENDBRANCH   2   3
BRANCH   2  14
ATOM     14  C   UNL     1     -10.691   0.580 -32.870  1.00  0.00     0.345 C 
ATOM     15  O   UNL     1     -11.322  -0.356 -33.341  1.00  0.00    -0.248 OA
BRANCH  14  16
ATOM     16  O   UNL     1     -11.049   1.872 -33.074  1.00  0.00    -0.478 OA
ATOM     17  H   UNL     1     -10.819   2.141 -33.989  1.00  0.00     0.296 HD
ENDBRANCH  14  16
ENDBRANCH   2  14
ENDBRANCH   1   2
BRANCH   1  18
ATOM     18  C   UNL     1      -7.444   1.267 -32.915  1.00  0.00     0.331 C 
ATOM     19  O   UNL     1      -7.383   0.883 -34.069  1.00  0.00    -0.247 OA
BRANCH  18  20
ATOM     20  C   UNL     1      -6.291   1.485 -32.021  1.00  0.00     0.094 C 
ATOM     21  C   UNL     1      -5.966   0.547 -31.117  1.00  0.00     0.016 C 
BRANCH  21  22
ATOM     22  C   UNL     1      -4.833   0.667 -30.189  1.00  0.00    -0.021 A 
ATOM     23  C   UNL     1      -3.544   0.370 -30.658  1.00  0.00     0.058 A 
ATOM     24  C   UNL     1      -5.009   1.018 -28.839  1.00  0.00     0.012 A 
ATOM     25  C   UNL     1      -2.459   0.454 -29.792  1.00  0.00     0.157 A 
ATOM     26  C   UNL     1      -3.912   1.102 -27.976  1.00  0.00     0.051 A 
ATOM     27  C   UNL     1      -2.645   0.822 -28.463  1.00  0.00     0.157 A 
BRANCH  25  28
ATOM     28  O   UNL     1      -1.182   0.183 -30.202  1.00  0.00    -0.504 OA
ATOM     29  H   UNL     1      -0.890  -0.638 -29.769  1.00  0.00     0.293 HD
ENDBRANCH  25  28
BRANCH  27  30
ATOM     30  O   UNL     1      -1.574   0.902 -27.620  1.00  0.00    -0.504 OA
ATOM     31  H   UNL     1      -1.723   0.190 -26.966  1.00  0.00     0.293 HD
ENDBRANCH  27  30
ENDBRANCH  21  22
ENDBRANCH  18  20
ENDBRANCH   1  18
TORSDOF 12
ENDMDL
MODEL 7
REMARK VINA RESULT:      -7.5      0.885      1.498
REMARK SMILES O=C(C=Cc1ccc(O)c(O)c1)O[C@@H](Cc1ccc(O)c(O)c1)C(=O)O
REMARK SMILES IDX 13 1 14 2 15 3 16 4 17 5 18 6 19 7 23 8 21 9 20 10 22 12
REMARK SMILES IDX 24 14 25 15 26 16 2 18 1 19 3 20 4 21 5 22 12 23 6 24 10 25
REMARK SMILES IDX 7 26 8 27 11 28 9 30
REMARK H PARENT 20 11 22 13 26 17 11 29 9 31
ROOT
ATOM      1  O   UNL     1      -8.725  -0.799 -32.139  1.00  0.00    -0.447 OA
ENDROOT
BRANCH   1   2
ATOM      2  C   UNL     1      -9.193   0.561 -31.999  1.00  0.00     0.290 C 
BRANCH   2   3
ATOM      3  C   UNL     1      -8.127   1.583 -32.424  1.00  0.00     0.093 C 
BRANCH   3   4
ATOM      4  C   UNL     1      -6.948   1.663 -31.477  1.00  0.00    -0.040 A 
ATOM      5  C   UNL     1      -5.760   0.963 -31.756  1.00  0.00     0.008 A 
ATOM      6  C   UNL     1      -4.680   1.003 -30.869  1.00  0.00     0.050 A 
ATOM      7  C   UNL     1      -4.790   1.742 -29.699  1.00  0.00     0.157 A 
ATOM      8  C   UNL     1      -7.037   2.411 -30.294  1.00  0.00     0.054 A 
ATOM      9  C   UNL     1      -5.962   2.439 -29.417  1.00  0.00     0.157 A 
BRANCH   7  10
ATOM     10  O   UNL     1      -3.773   1.815 -28.790  1.00  0.00    -0.504 OA
ATOM     11  H   UNL     1      -3.024   1.297 -29.133  1.00  0.00     0.293 HD
ENDBRANCH   7  10
BRANCH   9  12
ATOM     12  O   UNL     1      -6.068   3.158 -28.261  1.00  0.00    -0.504 OA
ATOM     13  H   UNL     1      -7.006   3.061 -27.999  1.00  0.00     0.293 HD
ENDBRANCH   9  12
ENDBRANCH   3   4
ENDBRANCH   2   3
BRANCH   2  14
ATOM     14  C   UNL     1     -10.459   0.735 -32.834  1.00  0.00     0.345 C 
ATOM     15  O   UNL     1     -11.073  -0.185 -33.354  1.00  0.00    -0.248 OA
BRANCH  14  16
ATOM     16  O   UNL     1     -10.860   2.026 -32.941  1.00  0.00    -0.478 OA
ATOM     17  H   UNL     1     -11.811   2.061 -33.182  1.00  0.00     0.296 HD
ENDBRANCH  14  16
ENDBRANCH   2  14
ENDBRANCH   1   2
BRANCH   1  18
ATOM     18  C   UNL     1      -9.024  -1.611 -31.094  1.00  0.00     0.331 C 
ATOM     19  O   UNL     1      -9.720  -2.610 -31.134  1.00  0.00    -0.247 OA
BRANCH  18  20
ATOM     20  C   UNL     1      -8.370  -1.068 -29.888  1.00  0.00     0.094 C 
ATOM     21  C   UNL     1      -7.231  -1.624 -29.444  1.00  0.00     0.016 C 
BRANCH  21  22
ATOM     22  C   UNL     1      -6.501  -1.151 -28.260  1.00  0.00    -0.021 A 
ATOM     23  C   UNL     1      -7.129  -0.231 -27.405  1.00  0.00     0.058 A 
ATOM     24  C   UNL     1      -5.181  -1.552 -27.988  1.00  0.00     0.012 A 
ATOM     25  C   UNL     1      -6.449   0.248 -26.289  1.00  0.00     0.157 A 
ATOM     26  C   UNL     1      -4.507  -1.066 -26.863  1.00  0.00     0.051 A 
ATOM     27  C   UNL     1      -5.150  -0.173 -26.022  1.00  0.00     0.157 A 
BRANCH  25  28
ATOM     28  O   UNL     1      -7.019   1.139 -25.422  1.00  0.00    -0.504 OA
ATOM     29  H   UNL     1      -7.982   1.002 -25.432  1.00  0.00     0.293 HD
ENDBRANCH  25  28
BRANCH  27  30
ATOM     30  O   UNL     1      -4.490   0.302 -24.925  1.00  0.00    -0.504 OA
ATOM     31  H   UNL     1      -3.939  -0.448 -24.625  1.00  0.00     0.293 HD
ENDBRANCH  27  30
ENDBRANCH  21  22
ENDBRANCH  18  20
ENDBRANCH   1  18
TORSDOF 12
ENDMDL
MODEL 8
REMARK VINA RESULT:      -7.5      2.868      6.082
REMARK SMILES O=C(C=Cc1ccc(O)c(O)c1)O[C@@H](Cc1ccc(O)c(O)c1)C(=O)O
REMARK SMILES IDX 13 1 14 2 15 3 16 4 17 5 18 6 19 7 23 8 21 9 20 10 22 12
REMARK SMILES IDX 24 14 25 15 26 16 2 18 1 19 3 20 4 21 5 22 12 23 6 24 10 25
REMARK SMILES IDX 7 26 8 27 11 28 9 30
REMARK H PARENT 20 11 22 13 26 17 11 29 9 31
ROOT
ATOM      1  O   UNL     1      -6.424  -0.617 -30.236  1.00  0.00    -0.447 OA
ENDROOT
BRANCH   1   2
ATOM      2  C   UNL     1      -5.604   0.571 -30.309  1.00  0.00     0.290 C 
BRANCH   2   3
ATOM      3  C   UNL     1      -6.218   1.639 -31.227  1.00  0.00     0.093 C 
BRANCH   3   4
ATOM      4  C   UNL     1      -7.490   1.191 -31.915  1.00  0.00    -0.040 A 
ATOM      5  C   UNL     1      -7.492   0.900 -33.291  1.00  0.00     0.008 A 
ATOM      6  C   UNL     1      -8.670   0.519 -33.941  1.00  0.00     0.050 A 
ATOM      7  C   UNL     1      -9.849   0.434 -33.213  1.00  0.00     0.157 A 
ATOM      8  C   UNL     1      -8.689   1.091 -31.195  1.00  0.00     0.054 A 
ATOM      9  C   UNL     1      -9.855   0.720 -31.850  1.00  0.00     0.157 A 
BRANCH   7  10
ATOM     10  O   UNL     1     -11.034   0.075 -33.792  1.00  0.00    -0.504 OA
ATOM     11  H   UNL     1     -10.968  -0.858 -34.060  1.00  0.00     0.293 HD
ENDBRANCH   7  10
BRANCH   9  12
ATOM     12  O   UNL     1     -11.018   0.642 -31.140  1.00  0.00    -0.504 OA
ATOM     13  H   UNL     1     -10.796   1.026 -30.267  1.00  0.00     0.293 HD
ENDBRANCH   9  12
ENDBRANCH   3   4
ENDBRANCH   2   3
BRANCH   2  14
ATOM     14  C   UNL     1      -5.414   1.126 -28.900  1.00  0.00     0.345 C 
ATOM     15  O   UNL     1      -4.419   0.940 -28.214  1.00  0.00    -0.248 OA
BRANCH  14  16
ATOM     16  O   UNL     1      -6.463   1.870 -28.469  1.00  0.00    -0.478 OA
ATOM     17  H   UNL     1      -6.386   2.786 -28.813  1.00  0.00     0.296 HD
ENDBRANCH  14  16
ENDBRANCH   2  14
ENDBRANCH   1   2
BRANCH   1  18
ATOM     18  C   UNL     1      -5.754  -1.748 -29.900  1.00  0.00     0.331 C 
ATOM     19  O   UNL     1      -4.567  -1.960 -30.073  1.00  0.00    -0.247 OA
BRANCH  18  20
ATOM     20  C   UNL     1      -6.715  -2.692 -29.298  1.00  0.00     0.094 C 
ATOM     21  C   UNL     1      -7.926  -2.850 -29.855  1.00  0.00     0.016 C 
BRANCH  21  22
ATOM     22  C   UNL     1      -8.949  -3.769 -29.336  1.00  0.00    -0.021 A 
ATOM     23  C   UNL     1      -9.680  -4.547 -30.248  1.00  0.00     0.058 A 
ATOM     24  C   UNL     1      -9.250  -3.852 -27.965  1.00  0.00     0.012 A 
ATOM     25  C   UNL     1     -10.668  -5.408 -29.781  1.00  0.00     0.157 A 
ATOM     26  C   UNL     1     -10.245  -4.721 -27.506  1.00  0.00     0.051 A 
ATOM     27  C   UNL     1     -10.942  -5.494 -28.420  1.00  0.00     0.157 A 
BRANCH  25  28
ATOM     28  O   UNL     1     -11.403  -6.192 -30.627  1.00  0.00    -0.504 OA
ATOM     29  H   UNL     1     -11.460  -5.743 -31.488  1.00  0.00     0.293 HD
ENDBRANCH  25  28
BRANCH  27  30
ATOM     30  O   UNL     1     -11.915  -6.341 -27.971  1.00  0.00    -0.504 OA
ATOM     31  H   UNL     1     -12.269  -6.759 -28.781  1.00  0.00     0.293 HD
ENDBRANCH  27  30
ENDBRANCH  21  22
ENDBRANCH  18  20
ENDBRANCH   1  18
TORSDOF 12
ENDMDL
MODEL 9
REMARK VINA RESULT:      -7.4      1.509      6.740
REMARK SMILES O=C(C=Cc1ccc(O)c(O)c1)O[C@@H](Cc1ccc(O)c(O)c1)C(=O)O
REMARK SMILES IDX 13 1 14 2 15 3 16 4 17 5 18 6 19 7 23 8 21 9 20 10 22 12
REMARK SMILES IDX 24 14 25 15 26 16 2 18 1 19 3 20 4 21 5 22 12 23 6 24 10 25
REMARK SMILES IDX 7 26 8 27 11 28 9 30
REMARK H PARENT 20 11 22 13 26 17 11 29 9 31
ROOT
ATOM      1  O   UNL     1      -3.954   1.247 -29.787  1.00  0.00    -0.447 OA
ENDROOT
BRANCH   1   2
ATOM      2  C   UNL     1      -4.330   0.489 -28.614  1.00  0.00     0.290 C 
BRANCH   2   3
ATOM      3  C   UNL     1      -4.476  -1.009 -28.920  1.00  0.00     0.093 C 
BRANCH   3   4
ATOM      4  C   UNL     1      -5.914  -1.476 -29.005  1.00  0.00    -0.040 A 
ATOM      5  C   UNL     1      -6.892  -0.931 -28.154  1.00  0.00     0.008 A 
ATOM      6  C   UNL     1      -8.215  -1.381 -28.202  1.00  0.00     0.050 A 
ATOM      7  C   UNL     1      -8.559  -2.381 -29.102  1.00  0.00     0.157 A 
ATOM      8  C   UNL     1      -6.283  -2.479 -29.913  1.00  0.00     0.054 A 
ATOM      9  C   UNL     1      -7.596  -2.925 -29.948  1.00  0.00     0.157 A 
BRANCH   7  10
ATOM     10  O   UNL     1      -9.832  -2.868 -29.192  1.00  0.00    -0.504 OA
ATOM     11  H   UNL     1     -10.184  -2.631 -30.067  1.00  0.00     0.293 HD
ENDBRANCH   7  10
BRANCH   9  12
ATOM     12  O   UNL     1      -7.937  -3.913 -30.826  1.00  0.00    -0.504 OA
ATOM     13  H   UNL     1      -8.096  -4.696 -30.260  1.00  0.00     0.293 HD
ENDBRANCH   9  12
ENDBRANCH   3   4
ENDBRANCH   2   3
BRANCH   2  14
ATOM     14  C   UNL     1      -3.282   0.711 -27.528  1.00  0.00     0.345 C 
ATOM     15  O   UNL     1      -2.099   0.930 -27.745  1.00  0.00    -0.248 OA
BRANCH  14  16
ATOM     16  O   UNL     1      -3.789   0.656 -26.271  1.00  0.00    -0.478 OA
ATOM     17  H   UNL     1      -3.467   1.421 -25.748  1.00  0.00     0.296 HD
ENDBRANCH  14  16
ENDBRANCH   2  14
ENDBRANCH   1   2
BRANCH   1  18
ATOM     18  C   UNL     1      -4.664   2.388 -29.976  1.00  0.00     0.331 C 
ATOM     19  O   UNL     1      -4.247   3.525 -29.853  1.00  0.00    -0.247 OA
BRANCH  18  20
ATOM     20  C   UNL     1      -6.044   2.015 -30.345  1.00  0.00     0.094 C 
ATOM     21  C   UNL     1      -6.290   1.507 -31.562  1.00  0.00     0.016 C 
BRANCH  21  22
ATOM     22  C   UNL     1      -7.625   1.099 -32.021  1.00  0.00    -0.021 A 
ATOM     23  C   UNL     1      -8.625   0.869 -31.062  1.00  0.00     0.058 A 
ATOM     24  C   UNL     1      -7.914   0.884 -33.380  1.00  0.00     0.012 A 
ATOM     25  C   UNL     1      -9.890   0.461 -31.471  1.00  0.00     0.157 A 
ATOM     26  C   UNL     1      -9.189   0.475 -33.781  1.00  0.00     0.051 A 
ATOM     27  C   UNL     1     -10.167   0.270 -32.821  1.00  0.00     0.157 A 
BRANCH  25  28
ATOM     28  O   UNL     1     -10.900   0.231 -30.578  1.00  0.00    -0.504 OA
ATOM     29  H   UNL     1     -11.037   1.040 -30.055  1.00  0.00     0.293 HD
ENDBRANCH  25  28
BRANCH  27  30
ATOM     30  O   UNL     1     -11.412  -0.131 -33.213  1.00  0.00    -0.504 OA
ATOM     31  H   UNL     1     -11.939  -0.138 -32.389  1.00  0.00     0.293 HD
ENDBRANCH  27  30
ENDBRANCH  21  22
ENDBRANCH  18  20
ENDBRANCH   1  18
TORSDOF 12
ENDMDL
MODEL 10
REMARK VINA RESULT:      -7.4      2.376      5.000
REMARK SMILES O=C(C=Cc1ccc(O)c(O)c1)O[C@@H](Cc1ccc(O)c(O)c1)C(=O)O
REMARK SMILES IDX 13 1 14 2 15 3 16 4 17 5 18 6 19 7 23 8 21 9 20 10 22 12
REMARK SMILES IDX 24 14 25 15 26 16 2 18 1 19 3 20 4 21 5 22 12 23 6 24 10 25
REMARK SMILES IDX 7 26 8 27 11 28 9 30
REMARK H PARENT 20 11 22 13 26 17 11 29 9 31
ROOT
ATOM      1  O   UNL     1      -7.053   0.222 -30.569  1.00  0.00    -0.447 OA
ENDROOT
BRANCH   1   2
ATOM      2  C   UNL     1      -6.872  -1.197 -30.776  1.00  0.00     0.290 C 
BRANCH   2   3
ATOM      3  C   UNL     1      -6.145  -1.862 -29.597  1.00  0.00     0.093 C 
BRANCH   3   4
ATOM      4  C   UNL     1      -4.919  -1.104 -29.132  1.00  0.00    -0.040 A 
ATOM      5  C   UNL     1      -3.772  -1.038 -29.941  1.00  0.00     0.008 A 
ATOM      6  C   UNL     1      -2.624  -0.370 -29.504  1.00  0.00     0.050 A 
ATOM      7  C   UNL     1      -2.625   0.231 -28.253  1.00  0.00     0.157 A 
ATOM      8  C   UNL     1      -4.904  -0.483 -27.875  1.00  0.00     0.054 A 
ATOM      9  C   UNL     1      -3.758   0.172 -27.446  1.00  0.00     0.157 A 
BRANCH   7  10
ATOM     10  O   UNL     1      -1.532   0.893 -27.767  1.00  0.00    -0.504 OA
ATOM     11  H   UNL     1      -0.793   0.746 -28.381  1.00  0.00     0.293 HD
ENDBRANCH   7  10
BRANCH   9  12
ATOM     12  O   UNL     1      -3.751   0.758 -26.213  1.00  0.00    -0.504 OA
ATOM     13  H   UNL     1      -3.578   0.020 -25.594  1.00  0.00     0.293 HD
ENDBRANCH   9  12
ENDBRANCH   3   4
ENDBRANCH   2   3
BRANCH   2  14
ATOM     14  C   UNL     1      -8.239  -1.842 -30.990  1.00  0.00     0.345 C 
ATOM     15  O   UNL     1      -8.884  -2.399 -30.113  1.00  0.00    -0.248 OA
BRANCH  14  16
ATOM     16  O   UNL     1      -8.692  -1.732 -32.264  1.00  0.00    -0.478 OA
ATOM     17  H   UNL     1      -8.875  -0.790 -32.472  1.00  0.00     0.296 HD
ENDBRANCH  14  16
ENDBRANCH   2  14
ENDBRANCH   1   2
BRANCH   1  18
ATOM     18  C   UNL     1      -6.757   0.993 -31.645  1.00  0.00     0.331 C 
ATOM     19  O   UNL     1      -7.315   0.965 -32.727  1.00  0.00    -0.247 OA
BRANCH  18  20
ATOM     20  C   UNL     1      -5.626   1.870 -31.286  1.00  0.00     0.094 C 
ATOM     21  C   UNL     1      -5.779   2.788 -30.319  1.00  0.00     0.016 C 
BRANCH  21  22
ATOM     22  C   UNL     1      -4.713   3.700 -29.884  1.00  0.00    -0.021 A 
ATOM     23  C   UNL     1      -4.340   4.754 -30.734  1.00  0.00     0.058 A 
ATOM     24  C   UNL     1      -4.023   3.518 -28.673  1.00  0.00     0.012 A 
ATOM     25  C   UNL     1      -3.318   5.618 -30.353  1.00  0.00     0.157 A 
ATOM     26  C   UNL     1      -2.998   4.392 -28.298  1.00  0.00     0.051 A 
ATOM     27  C   UNL     1      -2.658   5.437 -29.142  1.00  0.00     0.157 A 
BRANCH  25  28
ATOM     28  O   UNL     1      -2.924   6.664 -31.142  1.00  0.00    -0.504 OA
ATOM     29  H   UNL     1      -2.149   6.382 -31.658  1.00  0.00     0.293 HD
ENDBRANCH  25  28
BRANCH  27  30
ATOM     30  O   UNL     1      -1.655   6.289 -28.777  1.00  0.00    -0.504 OA
ATOM     31  H   UNL     1      -1.359   6.694 -29.617  1.00  0.00     0.293 HD
ENDBRANCH  27  30
ENDBRANCH  21  22
ENDBRANCH  18  20
ENDBRANCH   1  18
TORSDOF 12
ENDMDL
