MODEL 1
REMARK VINA RESULT:      -8.1      0.000      0.000
REMARK SMILES O=C(C=Cc1ccc(O)c(O)c1)O[C@@H](Cc1ccc(O)c(O)c1)C(=O)O
REMARK SMILES IDX 13 1 14 2 15 3 16 4 17 5 18 6 19 7 23 8 21 9 20 10 22 12
REMARK SMILES IDX 24 14 25 15 26 16 2 18 1 19 3 20 4 21 5 22 12 23 6 24 10 25
REMARK SMILES IDX 7 26 8 27 11 28 9 30
REMARK H PARENT 20 11 22 13 26 17 11 29 9 31
ROOT
ATOM      1  O   UNL     1      -9.081  -1.412 -32.382  1.00  0.00    -0.447 OA
ENDROOT
BRANCH   1   2
ATOM      2  C   UNL     1      -9.298   0.007 -32.209  1.00  0.00     0.290 C 
BRANCH   2   3
ATOM      3  C   UNL     1      -8.296   0.844 -33.019  1.00  0.00     0.093 C 
BRANCH   3   4
ATOM      4  C   UNL     1      -7.118   1.338 -32.206  1.00  0.00    -0.040 A 
ATOM      5  C   UNL     1      -7.320   2.178 -31.096  1.00  0.00     0.008 A 
ATOM      6  C   UNL     1      -6.236   2.667 -30.361  1.00  0.00     0.050 A 
ATOM      7  C   UNL     1      -4.947   2.317 -30.740  1.00  0.00     0.157 A 
ATOM      8  C   UNL     1      -5.809   0.989 -32.567  1.00  0.00     0.054 A 
ATOM      9  C   UNL     1      -4.739   1.485 -31.836  1.00  0.00     0.157 A 
BRANCH   7  10
ATOM     10  O   UNL     1      -3.846   2.768 -30.066  1.00  0.00    -0.504 OA
ATOM     11  H   UNL     1      -3.869   2.395 -29.168  1.00  0.00     0.293 HD
ENDBRANCH   7  10
BRANCH   9  12
ATOM     12  O   UNL     1      -3.469   1.150 -32.209  1.00  0.00    -0.504 OA
ATOM     13  H   UNL     1      -3.016   0.940 -31.367  1.00  0.00     0.293 HD
ENDBRANCH   9  12
ENDBRANCH   3   4
ENDBRANCH   2   3
BRANCH   2  14
ATOM     14  C   UNL     1     -10.728   0.341 -32.624  1.00  0.00     0.345 C 
ATOM     15  O   UNL     1     -11.621  -0.486 -32.748  1.00  0.00    -0.248 OA
BRANCH  14  16
ATOM     16  O   UNL     1     -10.932   1.665 -32.836  1.00  0.00    -0.478 OA
ATOM     17  H   UNL     1     -10.160   2.050 -33.304  1.00  0.00     0.296 HD
ENDBRANCH  14  16
ENDBRANCH   2  14
ENDBRANCH   1   2
BRANCH   1  18
ATOM     18  C   UNL     1      -8.956  -2.110 -31.224  1.00  0.00     0.331 C 
ATOM     19  O   UNL     1      -9.582  -3.107 -30.913  1.00  0.00    -0.247 OA
BRANCH  18  20
ATOM     20  C   UNL     1      -7.934  -1.444 -30.394  1.00  0.00     0.094 C 
ATOM     21  C   UNL     1      -6.683  -1.931 -30.364  1.00  0.00     0.016 C 
BRANCH  21  22
ATOM     22  C   UNL     1      -5.595  -1.335 -29.576  1.00  0.00    -0.021 A 
ATOM     23  C   UNL     1      -5.925  -0.479 -28.513  1.00  0.00     0.058 A 
ATOM     24  C   UNL     1      -4.242  -1.555 -29.887  1.00  0.00     0.012 A 
ATOM     25  C   UNL     1      -4.911   0.114 -27.767  1.00  0.00     0.157 A 
ATOM     26  C   UNL     1      -3.231  -0.955 -29.131  1.00  0.00     0.051 A 
ATOM     27  C   UNL     1      -3.576  -0.129 -28.074  1.00  0.00     0.157 A 
BRANCH  25  28
ATOM     28  O   UNL     1      -5.180   0.949 -26.717  1.00  0.00    -0.504 OA
ATOM     29  H   UNL     1      -4.963   0.482 -25.892  1.00  0.00     0.293 HD
ENDBRANCH  25  28
BRANCH  27  30
ATOM     30  O   UNL     1      -2.588   0.458 -27.336  1.00  0.00    -0.504 OA
ATOM     31  H   UNL     1      -2.688   1.415 -27.510  1.00  0.00     0.293 HD
ENDBRANCH  27  30
ENDBRANCH  21  22
ENDBRANCH  18  20
ENDBRANCH   1  18
TORSDOF 12
ENDMDL
MODEL 2
REMARK VINA RESULT:      -7.9      0.932      1.022
REMARK SMILES O=C(C=Cc1ccc(O)c(O)c1)O[C@@H](Cc1ccc(O)c(O)c1)C(=O)O
REMARK SMILES IDX 13 1 14 2 15 3 16 4 17 5 18 6 19 7 23 8 21 9 20 10 22 12
REMARK SMILES IDX 24 14 25 15 26 16 2 18 1 19 3 20 4 21 5 22 12 23 6 24 10 25
REMARK SMILES IDX 7 26 8 27 11 28 9 30
REMARK H PARENT 20 11 22 13 26 17 11 29 9 31
ROOT
ATOM      1  O   UNL     1      -8.724  -0.812 -32.377  1.00  0.00    -0.447 OA
ENDROOT
BRANCH   1   2
ATOM      2  C   UNL     1      -9.216   0.518 -32.095  1.00  0.00     0.290 C 
BRANCH   2   3
ATOM      3  C   UNL     1      -8.253   1.606 -32.594  1.00  0.00     0.093 C 
BRANCH   3   4
ATOM      4  C   UNL     1      -6.984   1.717 -31.776  1.00  0.00    -0.040 A 
ATOM      5  C   UNL     1      -6.986   2.397 -30.545  1.00  0.00     0.008 A 
ATOM      6  C   UNL     1      -5.811   2.535 -29.800  1.00  0.00     0.050 A 
ATOM      7  C   UNL     1      -4.630   1.993 -30.290  1.00  0.00     0.157 A 
ATOM      8  C   UNL     1      -5.783   1.169 -32.249  1.00  0.00     0.054 A 
ATOM      9  C   UNL     1      -4.621   1.317 -31.507  1.00  0.00     0.157 A 
BRANCH   7  10
ATOM     10  O   UNL     1      -3.448   2.099 -29.612  1.00  0.00    -0.504 OA
ATOM     11  H   UNL     1      -3.638   2.468 -28.732  1.00  0.00     0.293 HD
ENDBRANCH   7  10
BRANCH   9  12
ATOM     12  O   UNL     1      -3.455   0.792 -31.988  1.00  0.00    -0.504 OA
ATOM     13  H   UNL     1      -2.788   1.022 -31.310  1.00  0.00     0.293 HD
ENDBRANCH   9  12
ENDBRANCH   3   4
ENDBRANCH   2   3
BRANCH   2  14
ATOM     14  C   UNL     1     -10.588   0.683 -32.743  1.00  0.00     0.345 C 
ATOM     15  O   UNL     1     -11.340  -0.243 -33.011  1.00  0.00    -0.248 OA
BRANCH  14  16
ATOM     16  O   UNL     1     -10.913   1.976 -32.992  1.00  0.00    -0.478 OA
ATOM     17  H   UNL     1     -10.230   2.571 -32.615  1.00  0.00     0.296 HD
ENDBRANCH  14  16
ENDBRANCH   2  14
ENDBRANCH   1   2
BRANCH   1  18
ATOM     18  C   UNL     1      -8.862  -1.695 -31.355  1.00  0.00     0.331 C 
ATOM     19  O   UNL     1      -9.470  -2.750 -31.392  1.00  0.00    -0.247 OA
BRANCH  18  20
ATOM     20  C   UNL     1      -8.158  -1.151 -30.179  1.00  0.00     0.094 C 
ATOM     21  C   UNL     1      -6.907  -1.557 -29.909  1.00  0.00     0.016 C 
BRANCH  21  22
ATOM     22  C   UNL     1      -6.121  -1.069 -28.767  1.00  0.00    -0.021 A 
ATOM     23  C   UNL     1      -6.759  -0.280 -27.797  1.00  0.00     0.058 A 
ATOM     24  C   UNL     1      -4.743  -1.324 -28.647  1.00  0.00     0.012 A 
ATOM     25  C   UNL     1      -6.030   0.212 -26.720  1.00  0.00     0.157 A 
ATOM     26  C   UNL     1      -4.019  -0.827 -27.559  1.00  0.00     0.051 A 
ATOM     27  C   UNL     1      -4.671  -0.066 -26.603  1.00  0.00     0.157 A 
BRANCH  25  28
ATOM     28  O   UNL     1      -6.607   0.978 -25.744  1.00  0.00    -0.504 OA
ATOM     29  H   UNL     1      -5.927   1.195 -25.084  1.00  0.00     0.293 HD
ENDBRANCH  25  28
BRANCH  27  30
ATOM     30  O   UNL     1      -3.963   0.421 -25.542  1.00  0.00    -0.504 OA
ATOM     31  H   UNL     1      -4.604   0.433 -24.804  1.00  0.00     0.293 HD
ENDBRANCH  27  30
ENDBRANCH  21  22
ENDBRANCH  18  20
ENDBRANCH   1  18
TORSDOF 12
ENDMDL
MODEL 3
REMARK VINA RESULT:      -7.9      1.757      3.618
REMARK SMILES O=C(C=Cc1ccc(O)c(O)c1)O[C@@H](Cc1ccc(O)c(O)c1)C(=O)O
REMARK SMILES IDX 13 1 14 2 15 3 16 4 17 5 18 6 19 7 23 8 21 9 20 10 22 12
REMARK SMILES IDX 24 14 25 15 26 16 2 18 1 19 3 20 4 21 5 22 12 23 6 24 10 25
REMARK SMILES IDX 7 26 8 27 11 28 9 30
REMARK H PARENT 20 11 22 13 26 17 11 29 9 31
ROOT
ATOM      1  O   UNL     1      -8.645   1.575 -31.999  1.00  0.00    -0.447 OA
ENDROOT
BRANCH   1   2
ATOM      2  C   UNL     1      -9.417   0.352 -32.013  1.00  0.00     0.290 C 
BRANCH   2   3
ATOM      3  C   UNL     1      -9.793  -0.107 -30.596  1.00  0.00     0.093 C 
BRANCH   3   4
ATOM      4  C   UNL     1      -8.644  -0.735 -29.835  1.00  0.00    -0.040 A 
ATOM      5  C   UNL     1      -8.109  -1.970 -30.242  1.00  0.00     0.008 A 
ATOM      6  C   UNL     1      -7.072  -2.574 -29.524  1.00  0.00     0.050 A 
ATOM      7  C   UNL     1      -6.572  -1.940 -28.394  1.00  0.00     0.157 A 
ATOM      8  C   UNL     1      -8.119  -0.107 -28.697  1.00  0.00     0.054 A 
ATOM      9  C   UNL     1      -7.095  -0.716 -27.986  1.00  0.00     0.157 A 
BRANCH   7  10
ATOM     10  O   UNL     1      -5.564  -2.482 -27.647  1.00  0.00    -0.504 OA
ATOM     11  H   UNL     1      -5.691  -3.446 -27.623  1.00  0.00     0.293 HD
ENDBRANCH   7  10
BRANCH   9  12
ATOM     12  O   UNL     1      -6.604  -0.102 -26.870  1.00  0.00    -0.504 OA
ATOM     13  H   UNL     1      -7.069   0.760 -26.844  1.00  0.00     0.293 HD
ENDBRANCH   9  12
ENDBRANCH   3   4
ENDBRANCH   2   3
BRANCH   2  14
ATOM     14  C   UNL     1     -10.672   0.572 -32.852  1.00  0.00     0.345 C 
ATOM     15  O   UNL     1     -11.359  -0.327 -33.315  1.00  0.00    -0.248 OA
BRANCH  14  16
ATOM     16  O   UNL     1     -10.975   1.882 -33.035  1.00  0.00    -0.478 OA
ATOM     17  H   UNL     1     -10.152   2.416 -33.046  1.00  0.00     0.296 HD
ENDBRANCH  14  16
ENDBRANCH   2  14
ENDBRANCH   1   2
BRANCH   1  18
ATOM     18  C   UNL     1      -7.433   1.487 -32.603  1.00  0.00     0.331 C 
ATOM     19  O   UNL     1      -7.232   1.296 -33.789  1.00  0.00    -0.247 OA
BRANCH  18  20
ATOM     20  C   UNL     1      -6.391   1.648 -31.571  1.00  0.00     0.094 C 
ATOM     21  C   UNL     1      -5.560   0.629 -31.302  1.00  0.00     0.016 C 
BRANCH  21  22
ATOM     22  C   UNL     1      -4.488   0.694 -30.300  1.00  0.00    -0.021 A 
ATOM     23  C   UNL     1      -4.294   1.895 -29.598  1.00  0.00     0.058 A 
ATOM     24  C   UNL     1      -3.622  -0.387 -30.063  1.00  0.00     0.012 A 
ATOM     25  C   UNL     1      -3.271   1.987 -28.660  1.00  0.00     0.157 A 
ATOM     26  C   UNL     1      -2.596  -0.285 -29.118  1.00  0.00     0.051 A 
ATOM     27  C   UNL     1      -2.433   0.902 -28.422  1.00  0.00     0.157 A 
BRANCH  25  28
ATOM     28  O   UNL     1      -3.046   3.131 -27.945  1.00  0.00    -0.504 OA
ATOM     29  H   UNL     1      -2.320   3.620 -28.369  1.00  0.00     0.293 HD
ENDBRANCH  25  28
BRANCH  27  30
ATOM     30  O   UNL     1      -1.431   1.002 -27.500  1.00  0.00    -0.504 OA
ATOM     31  H   UNL     1      -0.674   1.366 -28.000  1.00  0.00     0.293 HD
ENDBRANCH  27  30
ENDBRANCH  21  22
ENDBRANCH  18  20
ENDBRANCH   1  18
TORSDOF 12
ENDMDL
MODEL 4
REMARK VINA RESULT:      -7.8      2.559      6.333
REMARK SMILES O=C(C=Cc1ccc(O)c(O)c1)O[C@@H](Cc1ccc(O)c(O)c1)C(=O)O
REMARK SMILES IDX 13 1 14 2 15 3 16 4 17 5 18 6 19 7 23 8 21 9 20 10 22 12
REMARK SMILES IDX 24 14 25 15 26 16 2 18 1 19 3 20 4 21 5 22 12 23 6 24 10 25
REMARK SMILES IDX 7 26 8 27 11 28 9 30
REMARK H PARENT 20 11 22 13 26 17 11 29 9 31
ROOT
ATOM      1  O   UNL     1      -6.140  -0.277 -29.757  1.00  0.00    -0.447 OA
ENDROOT
BRANCH   1   2
ATOM      2  C   UNL     1      -5.461   0.677 -30.604  1.00  0.00     0.290 C 
BRANCH   2   3
ATOM      3  C   UNL     1      -6.412   1.768 -31.120  1.00  0.00     0.093 C 
BRANCH   3   4
ATOM      4  C   UNL     1      -7.655   1.224 -31.793  1.00  0.00    -0.040 A 
ATOM      5  C   UNL     1      -7.654   0.942 -33.170  1.00  0.00     0.008 A 
ATOM      6  C   UNL     1      -8.808   0.472 -33.806  1.00  0.00     0.050 A 
ATOM      7  C   UNL     1      -9.965   0.288 -33.061  1.00  0.00     0.157 A 
ATOM      8  C   UNL     1      -8.830   1.023 -31.056  1.00  0.00     0.054 A 
ATOM      9  C   UNL     1      -9.972   0.564 -31.696  1.00  0.00     0.157 A 
BRANCH   7  10
ATOM     10  O   UNL     1     -11.126  -0.161 -33.625  1.00  0.00    -0.504 OA
ATOM     11  H   UNL     1     -11.856   0.047 -33.018  1.00  0.00     0.293 HD
ENDBRANCH   7  10
BRANCH   9  12
ATOM     12  O   UNL     1     -11.115   0.389 -30.970  1.00  0.00    -0.504 OA
ATOM     13  H   UNL     1     -11.009  -0.493 -30.559  1.00  0.00     0.293 HD
ENDBRANCH   9  12
ENDBRANCH   3   4
ENDBRANCH   2   3
BRANCH   2  14
ATOM     14  C   UNL     1      -4.310   1.302 -29.819  1.00  0.00     0.345 C 
ATOM     15  O   UNL     1      -4.450   2.139 -28.940  1.00  0.00    -0.248 OA
BRANCH  14  16
ATOM     16  O   UNL     1      -3.092   0.827 -30.181  1.00  0.00    -0.478 OA
ATOM     17  H   UNL     1      -2.776   1.298 -30.982  1.00  0.00     0.296 HD
ENDBRANCH  14  16
ENDBRANCH   2  14
ENDBRANCH   1   2
BRANCH   1  18
ATOM     18  C   UNL     1      -5.711  -1.557 -29.889  1.00  0.00     0.331 C 
ATOM     19  O   UNL     1      -4.687  -1.921 -30.438  1.00  0.00    -0.247 OA
BRANCH  18  20
ATOM     20  C   UNL     1      -6.710  -2.444 -29.261  1.00  0.00     0.094 C 
ATOM     21  C   UNL     1      -7.818  -2.780 -29.941  1.00  0.00     0.016 C 
BRANCH  21  22
ATOM     22  C   UNL     1      -8.865  -3.662 -29.407  1.00  0.00    -0.021 A 
ATOM     23  C   UNL     1      -9.591  -4.464 -30.303  1.00  0.00     0.058 A 
ATOM     24  C   UNL     1      -9.196  -3.686 -28.041  1.00  0.00     0.012 A 
ATOM     25  C   UNL     1     -10.603  -5.290 -29.824  1.00  0.00     0.157 A 
ATOM     26  C   UNL     1     -10.213  -4.520 -27.569  1.00  0.00     0.051 A 
ATOM     27  C   UNL     1     -10.905  -5.318 -28.466  1.00  0.00     0.157 A 
BRANCH  25  28
ATOM     28  O   UNL     1     -11.333  -6.095 -30.653  1.00  0.00    -0.504 OA
ATOM     29  H   UNL     1     -10.723  -6.710 -31.097  1.00  0.00     0.293 HD
ENDBRANCH  25  28
BRANCH  27  30
ATOM     30  O   UNL     1     -11.900  -6.131 -28.004  1.00  0.00    -0.504 OA
ATOM     31  H   UNL     1     -11.651  -7.024 -28.316  1.00  0.00     0.293 HD
ENDBRANCH  27  30
ENDBRANCH  21  22
ENDBRANCH  18  20
ENDBRANCH   1  18
TORSDOF 12
ENDMDL
MODEL 5
REMARK VINA RESULT:      -7.7      2.313      6.211
REMARK SMILES O=C(C=Cc1ccc(O)c(O)c1)O[C@@H](Cc1ccc(O)c(O)c1)C(=O)O
REMARK SMILES IDX 13 1 14 2 15 3 16 4 17 5 18 6 19 7 23 8 21 9 20 10 22 12
REMARK SMILES IDX 24 14 25 15 26 16 2 18 1 19 3 20 4 21 5 22 12 23 6 24 10 25
REMARK SMILES IDX 7 26 8 27 11 28 9 30
REMARK H PARENT 20 11 22 13 26 17 11 29 9 31
ROOT
ATOM      1  O   UNL     1      -5.599  -0.087 -29.415  1.00  0.00    -0.447 OA
ENDROOT
BRANCH   1   2
ATOM      2  C   UNL     1      -5.400  -0.063 -30.847  1.00  0.00     0.290 C 
BRANCH   2   3
ATOM      3  C   UNL     1      -6.148   1.102 -31.513  1.00  0.00     0.093 C 
BRANCH   3   4
ATOM      4  C   UNL     1      -7.547   0.746 -31.970  1.00  0.00    -0.040 A 
ATOM      5  C   UNL     1      -7.832   0.592 -33.339  1.00  0.00     0.008 A 
ATOM      6  C   UNL     1      -9.128   0.297 -33.773  1.00  0.00     0.050 A 
ATOM      7  C   UNL     1     -10.141   0.158 -32.834  1.00  0.00     0.157 A 
ATOM      8  C   UNL     1      -8.582   0.592 -31.037  1.00  0.00     0.054 A 
ATOM      9  C   UNL     1      -9.867   0.307 -31.477  1.00  0.00     0.157 A 
BRANCH   7  10
ATOM     10  O   UNL     1     -11.429  -0.123 -33.195  1.00  0.00    -0.504 OA
ATOM     11  H   UNL     1     -11.988   0.627 -32.927  1.00  0.00     0.293 HD
ENDBRANCH   7  10
BRANCH   9  12
ATOM     12  O   UNL     1     -10.868   0.177 -30.559  1.00  0.00    -0.504 OA
ATOM     13  H   UNL     1     -11.062   1.094 -30.278  1.00  0.00     0.293 HD
ENDBRANCH   9  12
ENDBRANCH   3   4
ENDBRANCH   2   3
BRANCH   2  14
ATOM     14  C   UNL     1      -3.904   0.032 -31.135  1.00  0.00     0.345 C 
ATOM     15  O   UNL     1      -3.239  -0.868 -31.628  1.00  0.00    -0.248 OA
BRANCH  14  16
ATOM     16  O   UNL     1      -3.366   1.231 -30.801  1.00  0.00    -0.478 OA
ATOM     17  H   UNL     1      -2.402   1.132 -30.646  1.00  0.00     0.296 HD
ENDBRANCH  14  16
ENDBRANCH   2  14
ENDBRANCH   1   2
BRANCH   1  18
ATOM     18  C   UNL     1      -5.323  -1.277 -28.825  1.00  0.00     0.331 C 
ATOM     19  O   UNL     1      -4.427  -1.497 -28.030  1.00  0.00    -0.247 OA
BRANCH  18  20
ATOM     20  C   UNL     1      -6.290  -2.273 -29.325  1.00  0.00     0.094 C 
ATOM     21  C   UNL     1      -7.490  -2.386 -28.734  1.00  0.00     0.016 C 
BRANCH  21  22
ATOM     22  C   UNL     1      -8.523  -3.340 -29.161  1.00  0.00    -0.021 A 
ATOM     23  C   UNL     1      -8.761  -4.475 -28.369  1.00  0.00     0.058 A 
ATOM     24  C   UNL     1      -9.239  -3.177 -30.360  1.00  0.00     0.012 A 
ATOM     25  C   UNL     1      -9.718  -5.403 -28.765  1.00  0.00     0.157 A 
ATOM     26  C   UNL     1     -10.200  -4.115 -30.749  1.00  0.00     0.051 A 
ATOM     27  C   UNL     1     -10.433  -5.218 -29.945  1.00  0.00     0.157 A 
BRANCH  25  28
ATOM     28  O   UNL     1      -9.992  -6.520 -28.025  1.00  0.00    -0.504 OA
ATOM     29  H   UNL     1     -10.167  -7.257 -28.637  1.00  0.00     0.293 HD
ENDBRANCH  25  28
BRANCH  27  30
ATOM     30  O   UNL     1     -11.370  -6.135 -30.326  1.00  0.00    -0.504 OA
ATOM     31  H   UNL     1     -11.803  -5.735 -31.106  1.00  0.00     0.293 HD
ENDBRANCH  27  30
ENDBRANCH  21  22
ENDBRANCH  18  20
ENDBRANCH   1  18
TORSDOF 12
ENDMDL
MODEL 6
REMARK VINA RESULT:      -7.7      1.787      6.807
REMARK SMILES O=C(C=Cc1ccc(O)c(O)c1)O[C@@H](Cc1ccc(O)c(O)c1)C(=O)O
REMARK SMILES IDX 13 1 14 2 15 3 16 4 17 5 18 6 19 7 23 8 21 9 20 10 22 12
REMARK SMILES IDX 24 14 25 15 26 16 2 18 1 19 3 20 4 21 5 22 12 23 6 24 10 25
REMARK SMILES IDX 7 26 8 27 11 28 9 30
REMARK H PARENT 20 11 22 13 26 17 11 29 9 31
ROOT
ATOM      1  O   UNL     1      -4.520   1.440 -29.413  1.00  0.00    -0.447 OA
ENDROOT
BRANCH   1   2
ATOM      2  C   UNL     1      -3.231   0.950 -29.848  1.00  0.00     0.290 C 
BRANCH   2   3
ATOM      3  C   UNL     1      -2.554   0.082 -28.776  1.00  0.00     0.093 C 
BRANCH   3   4
ATOM      4  C   UNL     1      -3.508  -0.434 -27.719  1.00  0.00    -0.040 A 
ATOM      5  C   UNL     1      -4.208  -1.638 -27.917  1.00  0.00     0.008 A 
ATOM      6  C   UNL     1      -5.117  -2.104 -26.962  1.00  0.00     0.050 A 
ATOM      7  C   UNL     1      -5.327  -1.361 -25.808  1.00  0.00     0.157 A 
ATOM      8  C   UNL     1      -3.727   0.296 -26.543  1.00  0.00     0.054 A 
ATOM      9  C   UNL     1      -4.636  -0.170 -25.604  1.00  0.00     0.157 A 
BRANCH   7  10
ATOM     10  O   UNL     1      -6.207  -1.760 -24.840  1.00  0.00    -0.504 OA
ATOM     11  H   UNL     1      -7.036  -1.268 -24.967  1.00  0.00     0.293 HD
ENDBRANCH   7  10
BRANCH   9  12
ATOM     12  O   UNL     1      -4.852   0.559 -24.470  1.00  0.00    -0.504 OA
ATOM     13  H   UNL     1      -4.028   1.074 -24.352  1.00  0.00     0.293 HD
ENDBRANCH   9  12
ENDBRANCH   3   4
ENDBRANCH   2   3
BRANCH   2  14
ATOM     14  C   UNL     1      -3.416   0.155 -31.137  1.00  0.00     0.345 C 
ATOM     15  O   UNL     1      -3.725  -1.028 -31.180  1.00  0.00    -0.248 OA
BRANCH  14  16
ATOM     16  O   UNL     1      -3.216   0.893 -32.258  1.00  0.00    -0.478 OA
ATOM     17  H   UNL     1      -4.007   1.446 -32.437  1.00  0.00     0.296 HD
ENDBRANCH  14  16
ENDBRANCH   2  14
ENDBRANCH   1   2
BRANCH   1  18
ATOM     18  C   UNL     1      -4.985   2.506 -30.112  1.00  0.00     0.331 C 
ATOM     19  O   UNL     1      -4.508   3.627 -30.119  1.00  0.00    -0.247 OA
BRANCH  18  20
ATOM     20  C   UNL     1      -6.184   2.079 -30.859  1.00  0.00     0.094 C 
ATOM     21  C   UNL     1      -7.005   1.161 -30.325  1.00  0.00     0.016 C 
BRANCH  21  22
ATOM     22  C   UNL     1      -8.225   0.677 -30.985  1.00  0.00    -0.021 A 
ATOM     23  C   UNL     1      -9.003   1.590 -31.715  1.00  0.00     0.058 A 
ATOM     24  C   UNL     1      -8.661  -0.654 -30.864  1.00  0.00     0.012 A 
ATOM     25  C   UNL     1     -10.175   1.159 -32.329  1.00  0.00     0.157 A 
ATOM     26  C   UNL     1      -9.839  -1.078 -31.486  1.00  0.00     0.051 A 
ATOM     27  C   UNL     1     -10.583  -0.166 -32.217  1.00  0.00     0.157 A 
BRANCH  25  28
ATOM     28  O   UNL     1     -10.963   2.007 -33.058  1.00  0.00    -0.504 OA
ATOM     29  H   UNL     1     -11.057   1.642 -33.955  1.00  0.00     0.293 HD
ENDBRANCH  25  28
BRANCH  27  30
ATOM     30  O   UNL     1     -11.735  -0.579 -32.824  1.00  0.00    -0.504 OA
ATOM     31  H   UNL     1     -11.642  -1.551 -32.891  1.00  0.00     0.293 HD
ENDBRANCH  27  30
ENDBRANCH  21  22
ENDBRANCH  18  20
ENDBRANCH   1  18
TORSDOF 12
ENDMDL
MODEL 7
REMARK VINA RESULT:      -7.6      1.928      4.376
REMARK SMILES O=C(C=Cc1ccc(O)c(O)c1)O[C@@H](Cc1ccc(O)c(O)c1)C(=O)O
REMARK SMILES IDX 13 1 14 2 15 3 16 4 17 5 18 6 19 7 23 8 21 9 20 10 22 12
REMARK SMILES IDX 24 14 25 15 26 16 2 18 1 19 3 20 4 21 5 22 12 23 6 24 10 25
REMARK SMILES IDX 7 26 8 27 11 28 9 30
REMARK H PARENT 20 11 22 13 26 17 11 29 9 31
ROOT
ATOM      1  O   UNL     1      -8.456   1.732 -32.438  1.00  0.00    -0.447 OA
ENDROOT
BRANCH   1   2
ATOM      2  C   UNL     1      -9.290   0.578 -32.188  1.00  0.00     0.290 C 
BRANCH   2   3
ATOM      3  C   UNL     1      -9.659   0.445 -30.703  1.00  0.00     0.093 C 
BRANCH   3   4
ATOM      4  C   UNL     1      -9.330  -0.910 -30.112  1.00  0.00    -0.040 A 
ATOM      5  C   UNL     1      -8.832  -1.941 -30.928  1.00  0.00     0.008 A 
ATOM      6  C   UNL     1      -8.558  -3.206 -30.398  1.00  0.00     0.050 A 
ATOM      7  C   UNL     1      -8.786  -3.438 -29.048  1.00  0.00     0.157 A 
ATOM      8  C   UNL     1      -9.545  -1.162 -28.750  1.00  0.00     0.054 A 
ATOM      9  C   UNL     1      -9.277  -2.422 -28.234  1.00  0.00     0.157 A 
BRANCH   7  10
ATOM     10  O   UNL     1      -8.545  -4.654 -28.472  1.00  0.00    -0.504 OA
ATOM     11  H   UNL     1      -7.829  -5.086 -28.969  1.00  0.00     0.293 HD
ENDBRANCH   7  10
BRANCH   9  12
ATOM     12  O   UNL     1      -9.507  -2.658 -26.909  1.00  0.00    -0.504 OA
ATOM     13  H   UNL     1     -10.392  -2.274 -26.744  1.00  0.00     0.293 HD
ENDBRANCH   9  12
ENDBRANCH   3   4
ENDBRANCH   2   3
BRANCH   2  14
ATOM     14  C   UNL     1     -10.551   0.688 -33.042  1.00  0.00     0.345 C 
ATOM     15  O   UNL     1     -11.031  -0.236 -33.684  1.00  0.00    -0.248 OA
BRANCH  14  16
ATOM     16  O   UNL     1     -11.111   1.923 -33.018  1.00  0.00    -0.478 OA
ATOM     17  H   UNL     1     -10.422   2.604 -33.171  1.00  0.00     0.296 HD
ENDBRANCH  14  16
ENDBRANCH   2  14
ENDBRANCH   1   2
BRANCH   1  18
ATOM     18  C   UNL     1      -7.246   1.448 -32.984  1.00  0.00     0.331 C 
ATOM     19  O   UNL     1      -7.038   1.106 -34.134  1.00  0.00    -0.247 OA
BRANCH  18  20
ATOM     20  C   UNL     1      -6.219   1.610 -31.937  1.00  0.00     0.094 C 
ATOM     21  C   UNL     1      -5.553   0.535 -31.489  1.00  0.00     0.016 C 
BRANCH  21  22
ATOM     22  C   UNL     1      -4.509   0.594 -30.457  1.00  0.00    -0.021 A 
ATOM     23  C   UNL     1      -4.368   1.774 -29.709  1.00  0.00     0.058 A 
ATOM     24  C   UNL     1      -3.618  -0.471 -30.234  1.00  0.00     0.012 A 
ATOM     25  C   UNL     1      -3.372   1.861 -28.742  1.00  0.00     0.157 A 
ATOM     26  C   UNL     1      -2.621  -0.374 -29.259  1.00  0.00     0.051 A 
ATOM     27  C   UNL     1      -2.510   0.792 -28.519  1.00  0.00     0.157 A 
BRANCH  25  28
ATOM     28  O   UNL     1      -3.198   2.985 -27.981  1.00  0.00    -0.504 OA
ATOM     29  H   UNL     1      -2.772   2.726 -27.146  1.00  0.00     0.293 HD
ENDBRANCH  25  28
BRANCH  27  30
ATOM     30  O   UNL     1      -1.535   0.887 -27.568  1.00  0.00    -0.504 OA
ATOM     31  H   UNL     1      -1.683   1.759 -27.150  1.00  0.00     0.293 HD
ENDBRANCH  27  30
ENDBRANCH  21  22
ENDBRANCH  18  20
ENDBRANCH   1  18
TORSDOF 12
ENDMDL
MODEL 8
REMARK VINA RESULT:      -7.6      1.487      2.101
REMARK SMILES O=C(C=Cc1ccc(O)c(O)c1)O[C@@H](Cc1ccc(O)c(O)c1)C(=O)O
REMARK SMILES IDX 13 1 14 2 15 3 16 4 17 5 18 6 19 7 23 8 21 9 20 10 22 12
REMARK SMILES IDX 24 14 25 15 26 16 2 18 1 19 3 20 4 21 5 22 12 23 6 24 10 25
REMARK SMILES IDX 7 26 8 27 11 28 9 30
REMARK H PARENT 20 11 22 13 26 17 11 29 9 31
ROOT
ATOM      1  O   UNL     1      -8.329  -0.870 -31.866  1.00  0.00    -0.447 OA
ENDROOT
BRANCH   1   2
ATOM      2  C   UNL     1      -8.822   0.390 -31.358  1.00  0.00     0.290 C 
BRANCH   2   3
ATOM      3  C   UNL     1      -8.042   1.585 -31.928  1.00  0.00     0.093 C 
BRANCH   3   4
ATOM      4  C   UNL     1      -7.034   2.171 -30.962  1.00  0.00    -0.040 A 
ATOM      5  C   UNL     1      -5.740   2.506 -31.397  1.00  0.00     0.008 A 
ATOM      6  C   UNL     1      -4.792   3.015 -30.504  1.00  0.00     0.050 A 
ATOM      7  C   UNL     1      -5.141   3.187 -29.171  1.00  0.00     0.157 A 
ATOM      8  C   UNL     1      -7.370   2.360 -29.614  1.00  0.00     0.054 A 
ATOM      9  C   UNL     1      -6.421   2.859 -28.733  1.00  0.00     0.157 A 
BRANCH   7  10
ATOM     10  O   UNL     1      -4.259   3.674 -28.248  1.00  0.00    -0.504 OA
ATOM     11  H   UNL     1      -3.743   2.926 -27.900  1.00  0.00     0.293 HD
ENDBRANCH   7  10
BRANCH   9  12
ATOM     12  O   UNL     1      -6.757   3.023 -27.420  1.00  0.00    -0.504 OA
ATOM     13  H   UNL     1      -5.967   3.439 -27.017  1.00  0.00     0.293 HD
ENDBRANCH   9  12
ENDBRANCH   3   4
ENDBRANCH   2   3
BRANCH   2  14
ATOM     14  C   UNL     1     -10.305   0.512 -31.696  1.00  0.00     0.345 C 
ATOM     15  O   UNL     1     -10.757   1.255 -32.556  1.00  0.00    -0.248 OA
BRANCH  14  16
ATOM     16  O   UNL     1     -11.096  -0.301 -30.953  1.00  0.00    -0.478 OA
ATOM     17  H   UNL     1     -12.040  -0.102 -31.131  1.00  0.00     0.296 HD
ENDBRANCH  14  16
ENDBRANCH   2  14
ENDBRANCH   1   2
BRANCH   1  18
ATOM     18  C   UNL     1      -8.030  -1.787 -30.911  1.00  0.00     0.331 C 
ATOM     19  O   UNL     1      -8.554  -2.878 -30.770  1.00  0.00    -0.247 OA
BRANCH  18  20
ATOM     20  C   UNL     1      -6.964  -1.231 -30.056  1.00  0.00     0.094 C 
ATOM     21  C   UNL     1      -5.705  -1.174 -30.519  1.00  0.00     0.016 C 
BRANCH  21  22
ATOM     22  C   UNL     1      -4.577  -0.631 -29.750  1.00  0.00    -0.021 A 
ATOM     23  C   UNL     1      -4.779  -0.304 -28.399  1.00  0.00     0.058 A 
ATOM     24  C   UNL     1      -3.325  -0.382 -30.336  1.00  0.00     0.012 A 
ATOM     25  C   UNL     1      -3.732   0.231 -27.656  1.00  0.00     0.157 A 
ATOM     26  C   UNL     1      -2.278   0.156 -29.581  1.00  0.00     0.051 A 
ATOM     27  C   UNL     1      -2.492   0.454 -28.245  1.00  0.00     0.157 A 
BRANCH  25  28
ATOM     28  O   UNL     1      -3.875   0.559 -26.335  1.00  0.00    -0.504 OA
ATOM     29  H   UNL     1      -4.720   1.029 -26.227  1.00  0.00     0.293 HD
ENDBRANCH  25  28
BRANCH  27  30
ATOM     30  O   UNL     1      -1.470   0.981 -27.509  1.00  0.00    -0.504 OA
ATOM     31  H   UNL     1      -0.872   0.226 -27.343  1.00  0.00     0.293 HD
ENDBRANCH  27  30
ENDBRANCH  21  22
ENDBRANCH  18  20
ENDBRANCH   1  18
TORSDOF 12
ENDMDL
MODEL 9
REMARK VINA RESULT:      -7.3      2.387      5.034
REMARK SMILES O=C(C=Cc1ccc(O)c(O)c1)O[C@@H](Cc1ccc(O)c(O)c1)C(=O)O
REMARK SMILES IDX 13 1 14 2 15 3 16 4 17 5 18 6 19 7 23 8 21 9 20 10 22 12
REMARK SMILES IDX 24 14 25 15 26 16 2 18 1 19 3 20 4 21 5 22 12 23 6 24 10 25
REMARK SMILES IDX 7 26 8 27 11 28 9 30
REMARK H PARENT 20 11 22 13 26 17 11 29 9 31
ROOT
ATOM      1  O   UNL     1      -6.942   0.401 -30.485  1.00  0.00    -0.447 OA
ENDROOT
BRANCH   1   2
ATOM      2  C   UNL     1      -6.830  -0.983 -30.888  1.00  0.00     0.290 C 
BRANCH   2   3
ATOM      3  C   UNL     1      -5.970  -1.799 -29.910  1.00  0.00     0.093 C 
BRANCH   3   4
ATOM      4  C   UNL     1      -4.797  -1.029 -29.342  1.00  0.00    -0.040 A 
ATOM      5  C   UNL     1      -3.627  -0.848 -30.102  1.00  0.00     0.008 A 
ATOM      6  C   UNL     1      -2.526  -0.169 -29.572  1.00  0.00     0.050 A 
ATOM      7  C   UNL     1      -2.596   0.329 -28.278  1.00  0.00     0.157 A 
ATOM      8  C   UNL     1      -4.851  -0.511 -28.040  1.00  0.00     0.054 A 
ATOM      9  C   UNL     1      -3.751   0.156 -27.520  1.00  0.00     0.157 A 
BRANCH   7  10
ATOM     10  O   UNL     1      -1.551   0.996 -27.702  1.00  0.00    -0.504 OA
ATOM     11  H   UNL     1      -1.104   1.511 -28.394  1.00  0.00     0.293 HD
ENDBRANCH   7  10
BRANCH   9  12
ATOM     12  O   UNL     1      -3.811   0.640 -26.245  1.00  0.00    -0.504 OA
ATOM     13  H   UNL     1      -3.874  -0.159 -25.684  1.00  0.00     0.293 HD
ENDBRANCH   9  12
ENDBRANCH   3   4
ENDBRANCH   2   3
BRANCH   2  14
ATOM     14  C   UNL     1      -8.231  -1.580 -30.992  1.00  0.00     0.345 C 
ATOM     15  O   UNL     1      -9.264  -0.933 -30.909  1.00  0.00    -0.248 OA
BRANCH  14  16
ATOM     16  O   UNL     1      -8.230  -2.921 -31.200  1.00  0.00    -0.478 OA
ATOM     17  H   UNL     1      -7.906  -3.383 -30.398  1.00  0.00     0.296 HD
ENDBRANCH  14  16
ENDBRANCH   2  14
ENDBRANCH   1   2
BRANCH   1  18
ATOM     18  C   UNL     1      -6.767   1.298 -31.489  1.00  0.00     0.331 C 
ATOM     19  O   UNL     1      -7.447   1.395 -32.495  1.00  0.00    -0.247 OA
BRANCH  18  20
ATOM     20  C   UNL     1      -5.597   2.135 -31.160  1.00  0.00     0.094 C 
ATOM     21  C   UNL     1      -5.681   3.029 -30.162  1.00  0.00     0.016 C 
BRANCH  21  22
ATOM     22  C   UNL     1      -4.571   3.901 -29.753  1.00  0.00    -0.021 A 
ATOM     23  C   UNL     1      -4.155   4.916 -30.630  1.00  0.00     0.058 A 
ATOM     24  C   UNL     1      -3.883   3.715 -28.542  1.00  0.00     0.012 A 
ATOM     25  C   UNL     1      -3.092   5.740 -30.274  1.00  0.00     0.157 A 
ATOM     26  C   UNL     1      -2.816   4.549 -28.193  1.00  0.00     0.051 A 
ATOM     27  C   UNL     1      -2.434   5.557 -29.062  1.00  0.00     0.157 A 
BRANCH  25  28
ATOM     28  O   UNL     1      -2.655   6.749 -31.088  1.00  0.00    -0.504 OA
ATOM     29  H   UNL     1      -3.394   7.363 -31.239  1.00  0.00     0.293 HD
ENDBRANCH  25  28
BRANCH  27  30
ATOM     30  O   UNL     1      -1.391   6.370 -28.722  1.00  0.00    -0.504 OA
ATOM     31  H   UNL     1      -1.420   7.095 -29.378  1.00  0.00     0.293 HD
ENDBRANCH  27  30
ENDBRANCH  21  22
ENDBRANCH  18  20
ENDBRANCH   1  18
TORSDOF 12
ENDMDL
MODEL 10
REMARK VINA RESULT:      -7.3      1.359      6.788
REMARK SMILES O=C(C=Cc1ccc(O)c(O)c1)O[C@@H](Cc1ccc(O)c(O)c1)C(=O)O
REMARK SMILES IDX 13 1 14 2 15 3 16 4 17 5 18 6 19 7 23 8 21 9 20 10 22 12
REMARK SMILES IDX 24 14 25 15 26 16 2 18 1 19 3 20 4 21 5 22 12 23 6 24 10 25
REMARK SMILES IDX 7 26 8 27 11 28 9 30
REMARK H PARENT 20 11 22 13 26 17 11 29 9 31
ROOT
ATOM      1  O   UNL     1      -4.012   1.570 -29.741  1.00  0.00    -0.447 OA
ENDROOT
BRANCH   1   2
ATOM      2  C   UNL     1      -4.386   0.649 -28.691  1.00  0.00     0.290 C 
BRANCH   2   3
ATOM      3  C   UNL     1      -4.523  -0.790 -29.211  1.00  0.00     0.093 C 
BRANCH   3   4
ATOM      4  C   UNL     1      -5.938  -1.327 -29.151  1.00  0.00    -0.040 A 
ATOM      5  C   UNL     1      -6.851  -0.826 -28.207  1.00  0.00     0.008 A 
ATOM      6  C   UNL     1      -8.149  -1.340 -28.122  1.00  0.00     0.050 A 
ATOM      7  C   UNL     1      -8.531  -2.361 -28.982  1.00  0.00     0.157 A 
ATOM      8  C   UNL     1      -6.345  -2.352 -30.017  1.00  0.00     0.054 A 
ATOM      9  C   UNL     1      -7.632  -2.861 -29.921  1.00  0.00     0.157 A 
BRANCH   7  10
ATOM     10  O   UNL     1      -9.782  -2.910 -28.944  1.00  0.00    -0.504 OA
ATOM     11  H   UNL     1      -9.692  -3.847 -28.700  1.00  0.00     0.293 HD
ENDBRANCH   7  10
BRANCH   9  12
ATOM     12  O   UNL     1      -8.011  -3.870 -30.759  1.00  0.00    -0.504 OA
ATOM     13  H   UNL     1      -7.170  -4.204 -31.133  1.00  0.00     0.293 HD
ENDBRANCH   9  12
ENDBRANCH   3   4
ENDBRANCH   2   3
BRANCH   2  14
ATOM     14  C   UNL     1      -3.340   0.717 -27.581  1.00  0.00     0.345 C 
ATOM     15  O   UNL     1      -2.151   0.934 -27.766  1.00  0.00    -0.248 OA
BRANCH  14  16
ATOM     16  O   UNL     1      -3.857   0.524 -26.342  1.00  0.00    -0.478 OA
ATOM     17  H   UNL     1      -4.629   1.115 -26.207  1.00  0.00     0.296 HD
ENDBRANCH  14  16
ENDBRANCH   2  14
ENDBRANCH   1   2
BRANCH   1  18
ATOM     18  C   UNL     1      -4.806   2.667 -29.841  1.00  0.00     0.331 C 
ATOM     19  O   UNL     1      -4.477   3.817 -29.614  1.00  0.00    -0.247 OA
BRANCH  18  20
ATOM     20  C   UNL     1      -6.150   2.225 -30.261  1.00  0.00     0.094 C 
ATOM     21  C   UNL     1      -6.318   1.675 -31.473  1.00  0.00     0.016 C 
BRANCH  21  22
ATOM     22  C   UNL     1      -7.612   1.198 -31.980  1.00  0.00    -0.021 A 
ATOM     23  C   UNL     1      -8.630   0.907 -31.058  1.00  0.00     0.058 A 
ATOM     24  C   UNL     1      -7.842   0.975 -33.349  1.00  0.00     0.012 A 
ATOM     25  C   UNL     1      -9.857   0.433 -31.512  1.00  0.00     0.157 A 
ATOM     26  C   UNL     1      -9.078   0.499 -33.796  1.00  0.00     0.051 A 
ATOM     27  C   UNL     1     -10.076   0.236 -32.872  1.00  0.00     0.157 A 
BRANCH  25  28
ATOM     28  O   UNL     1     -10.883   0.143 -30.656  1.00  0.00    -0.504 OA
ATOM     29  H   UNL     1     -10.588   0.335 -29.749  1.00  0.00     0.293 HD
ENDBRANCH  25  28
BRANCH  27  30
ATOM     30  O   UNL     1     -11.282  -0.230 -33.309  1.00  0.00    -0.504 OA
ATOM     31  H   UNL     1     -11.840   0.569 -33.391  1.00  0.00     0.293 HD
ENDBRANCH  27  30
ENDBRANCH  21  22
ENDBRANCH  18  20
ENDBRANCH   1  18
TORSDOF 12
ENDMDL
