MODEL 1
REMARK VINA RESULT:      -8.7      0.000      0.000
REMARK SMILES O=C(/C=C/c1ccc(O)c(O)c1)O[C@@H]1[C@H](O)C[C@@](O)(C(=O)O)C[C@H]1OC(=O)/C=C/c1ccc(O)c(O)c1
REMARK SMILES IDX 17 1 15 2 14 3 24 4 23 5 18 6 16 7 19 9 20 11 21 12 22 13
REMARK SMILES IDX 13 15 2 16 1 17 3 18 4 19 5 20 12 21 6 22 10 23 7 24 8 25
REMARK SMILES IDX 11 26 9 28 25 30 26 31 27 32 28 33 29 34 30 35 37 36 31 37
REMARK SMILES IDX 35 38 32 39 33 40 36 41 34 43
REMARK H PARENT 16 8 19 10 22 14 11 27 9 29 36 42 34 44
ROOT
ATOM      1  C   UNL     1     -10.616  -2.496 -22.861  1.00  0.00     0.083 C 
ATOM      2  C   UNL     1     -10.557  -1.662 -24.137  1.00  0.00     0.162 C 
ATOM      3  C   UNL     1      -9.198  -1.813 -24.842  1.00  0.00     0.246 C 
ATOM      4  C   UNL     1      -8.037  -1.438 -23.899  1.00  0.00     0.223 C 
ATOM      5  C   UNL     1      -8.102  -2.247 -22.600  1.00  0.00     0.097 C 
ATOM      6  C   UNL     1      -9.463  -2.140 -21.911  1.00  0.00     0.168 C 
ENDROOT
BRANCH   2   7
ATOM      7  O   UNL     1     -10.767  -0.290 -23.764  1.00  0.00    -0.389 OA
ATOM      8  H   UNL     1     -11.257  -0.306 -22.917  1.00  0.00     0.211 HD
ENDBRANCH   2   7
BRANCH   6   9
ATOM      9  O   UNL     1      -9.621  -0.799 -21.401  1.00  0.00    -0.378 OA
ATOM     10  H   UNL     1      -9.880  -0.228 -22.163  1.00  0.00     0.212 HD
ENDBRANCH   6   9
BRANCH   6  11
ATOM     11  C   UNL     1      -9.500  -3.084 -20.701  1.00  0.00     0.335 C 
ATOM     12  O   UNL     1      -9.969  -2.808 -19.608  1.00  0.00    -0.249 OA
BRANCH  11  13
ATOM     13  O   UNL     1      -8.949  -4.290 -20.993  1.00  0.00    -0.479 OA
ATOM     14  H   UNL     1      -8.946  -4.814 -20.154  1.00  0.00     0.296 HD
ENDBRANCH  11  13
ENDBRANCH   6  11
BRANCH   3  15
ATOM     15  O   UNL     1      -9.165  -0.927 -25.984  1.00  0.00    -0.452 OA
BRANCH  15  16
ATOM     16  C   UNL     1      -9.194  -1.525 -27.198  1.00  0.00     0.331 C 
ATOM     17  O   UNL     1      -9.933  -2.433 -27.535  1.00  0.00    -0.247 OA
BRANCH  16  18
ATOM     18  C   UNL     1      -8.175  -0.879 -28.047  1.00  0.00     0.094 C 
ATOM     19  C   UNL     1      -7.931   0.434 -27.914  1.00  0.00     0.016 C 
BRANCH  19  20
ATOM     20  C   UNL     1      -6.936   1.170 -28.706  1.00  0.00    -0.021 A 
ATOM     21  C   UNL     1      -6.309   2.286 -28.128  1.00  0.00     0.058 A 
ATOM     22  C   UNL     1      -6.633   0.828 -30.035  1.00  0.00     0.012 A 
ATOM     23  C   UNL     1      -5.381   3.016 -28.865  1.00  0.00     0.157 A 
ATOM     24  C   UNL     1      -5.701   1.567 -30.769  1.00  0.00     0.051 A 
ATOM     25  C   UNL     1      -5.081   2.654 -30.175  1.00  0.00     0.157 A 
BRANCH  23  26
ATOM     26  O   UNL     1      -4.737   4.104 -28.344  1.00  0.00    -0.504 OA
ATOM     27  H   UNL     1      -5.282   4.467 -27.625  1.00  0.00     0.293 HD
ENDBRANCH  23  26
BRANCH  25  28
ATOM     28  O   UNL     1      -4.171   3.377 -30.891  1.00  0.00    -0.504 OA
ATOM     29  H   UNL     1      -3.343   2.860 -30.831  1.00  0.00     0.293 HD
ENDBRANCH  25  28
ENDBRANCH  19  20
ENDBRANCH  16  18
ENDBRANCH  15  16
ENDBRANCH   3  15
BRANCH   4  30
ATOM     30  O   UNL     1      -6.778  -1.772 -24.531  1.00  0.00    -0.455 OA
BRANCH  30  31
ATOM     31  C   UNL     1      -5.845  -0.792 -24.589  1.00  0.00     0.331 C 
ATOM     32  O   UNL     1      -5.535  -0.032 -23.684  1.00  0.00    -0.247 OA
BRANCH  31  33
ATOM     33  C   UNL     1      -5.207  -0.720 -25.920  1.00  0.00     0.094 C 
ATOM     34  C   UNL     1      -4.086  -0.032 -26.188  1.00  0.00     0.016 C 
BRANCH  34  35
ATOM     35  C   UNL     1      -3.464   0.005 -27.519  1.00  0.00    -0.021 A 
ATOM     36  C   UNL     1      -3.865  -0.937 -28.479  1.00  0.00     0.058 A 
ATOM     37  C   UNL     1      -2.447   0.922 -27.837  1.00  0.00     0.012 A 
ATOM     38  C   UNL     1      -3.271  -0.932 -29.738  1.00  0.00     0.157 A 
ATOM     39  C   UNL     1      -1.856   0.919 -29.103  1.00  0.00     0.051 A 
ATOM     40  C   UNL     1      -2.275  -0.008 -30.044  1.00  0.00     0.157 A 
BRANCH  38  41
ATOM     41  O   UNL     1      -3.632  -1.820 -30.713  1.00  0.00    -0.504 OA
ATOM     42  H   UNL     1      -4.548  -1.629 -30.978  1.00  0.00     0.293 HD
ENDBRANCH  38  41
BRANCH  40  43
ATOM     43  O   UNL     1      -1.697  -0.011 -31.280  1.00  0.00    -0.504 OA
ATOM     44  H   UNL     1      -1.588   0.936 -31.503  1.00  0.00     0.293 HD
ENDBRANCH  40  43
ENDBRANCH  34  35
ENDBRANCH  31  33
ENDBRANCH  30  31
ENDBRANCH   4  30
TORSDOF 16
ENDMDL
MODEL 2
REMARK VINA RESULT:      -8.7      1.879      4.272
REMARK SMILES O=C(/C=C/c1ccc(O)c(O)c1)O[C@@H]1[C@H](O)C[C@@](O)(C(=O)O)C[C@H]1OC(=O)/C=C/c1ccc(O)c(O)c1
REMARK SMILES IDX 17 1 15 2 14 3 24 4 23 5 18 6 16 7 19 9 20 11 21 12 22 13
REMARK SMILES IDX 13 15 2 16 1 17 3 18 4 19 5 20 12 21 6 22 10 23 7 24 8 25
REMARK SMILES IDX 11 26 9 28 25 30 26 31 27 32 28 33 29 34 30 35 37 36 31 37
REMARK SMILES IDX 35 38 32 39 33 40 36 41 34 43
REMARK H PARENT 16 8 19 10 22 14 11 27 9 29 36 42 34 44
ROOT
ATOM      1  C   UNL     1      -8.539  -2.160 -20.927  1.00  0.00     0.083 C 
ATOM      2  C   UNL     1      -7.668  -2.504 -22.133  1.00  0.00     0.162 C 
ATOM      3  C   UNL     1      -7.294  -1.243 -22.930  1.00  0.00     0.246 C 
ATOM      4  C   UNL     1      -8.554  -0.474 -23.378  1.00  0.00     0.223 C 
ATOM      5  C   UNL     1      -9.454  -0.149 -22.181  1.00  0.00     0.097 C 
ATOM      6  C   UNL     1      -9.797  -1.389 -21.354  1.00  0.00     0.168 C 
ENDROOT
BRANCH   2   7
ATOM      7  O   UNL     1      -8.418  -3.406 -22.962  1.00  0.00    -0.389 OA
ATOM      8  H   UNL     1      -8.499  -4.241 -22.458  1.00  0.00     0.211 HD
ENDBRANCH   2   7
BRANCH   6   9
ATOM      9  O   UNL     1     -10.674  -2.235 -22.127  1.00  0.00    -0.378 OA
ATOM     10  H   UNL     1     -10.102  -2.778 -22.721  1.00  0.00     0.212 HD
ENDBRANCH   6   9
BRANCH   6  11
ATOM     11  C   UNL     1     -10.576  -0.967 -20.099  1.00  0.00     0.335 C 
ATOM     12  O   UNL     1     -10.652  -1.618 -19.068  1.00  0.00    -0.249 OA
BRANCH  11  13
ATOM     13  O   UNL     1     -11.175   0.239 -20.267  1.00  0.00    -0.479 OA
ATOM     14  H   UNL     1     -11.211   0.667 -19.376  1.00  0.00     0.296 HD
ENDBRANCH  11  13
ENDBRANCH   6  11
BRANCH   3  15
ATOM     15  O   UNL     1      -6.557  -1.639 -24.109  1.00  0.00    -0.452 OA
BRANCH  15  16
ATOM     16  C   UNL     1      -5.533  -0.830 -24.466  1.00  0.00     0.331 C 
ATOM     17  O   UNL     1      -4.984  -0.008 -23.754  1.00  0.00    -0.247 OA
BRANCH  16  18
ATOM     18  C   UNL     1      -5.190  -1.123 -25.870  1.00  0.00     0.094 C 
ATOM     19  C   UNL     1      -4.452  -0.250 -26.573  1.00  0.00     0.016 C 
BRANCH  19  20
ATOM     20  C   UNL     1      -4.053  -0.450 -27.973  1.00  0.00    -0.021 A 
ATOM     21  C   UNL     1      -4.064   0.656 -28.839  1.00  0.00     0.058 A 
ATOM     22  C   UNL     1      -3.715  -1.715 -28.483  1.00  0.00     0.012 A 
ATOM     23  C   UNL     1      -3.716   0.490 -30.176  1.00  0.00     0.157 A 
ATOM     24  C   UNL     1      -3.366  -1.873 -29.828  1.00  0.00     0.051 A 
ATOM     25  C   UNL     1      -3.368  -0.767 -30.662  1.00  0.00     0.157 A 
BRANCH  23  26
ATOM     26  O   UNL     1      -3.702   1.537 -31.057  1.00  0.00    -0.504 OA
ATOM     27  H   UNL     1      -3.174   1.277 -31.832  1.00  0.00     0.293 HD
ENDBRANCH  23  26
BRANCH  25  28
ATOM     28  O   UNL     1      -3.028  -0.922 -31.975  1.00  0.00    -0.504 OA
ATOM     29  H   UNL     1      -2.425  -0.176 -32.163  1.00  0.00     0.293 HD
ENDBRANCH  25  28
ENDBRANCH  19  20
ENDBRANCH  16  18
ENDBRANCH  15  16
ENDBRANCH   3  15
BRANCH   4  30
ATOM     30  O   UNL     1      -8.163   0.794 -23.956  1.00  0.00    -0.455 OA
BRANCH  30  31
ATOM     31  C   UNL     1      -8.759   1.145 -25.121  1.00  0.00     0.331 C 
ATOM     32  O   UNL     1      -9.285   2.219 -25.371  1.00  0.00    -0.247 OA
BRANCH  31  33
ATOM     33  C   UNL     1      -8.719   0.048 -26.110  1.00  0.00     0.094 C 
ATOM     34  C   UNL     1      -8.040   0.094 -27.267  1.00  0.00     0.016 C 
BRANCH  34  35
ATOM     35  C   UNL     1      -8.003  -1.021 -28.223  1.00  0.00    -0.021 A 
ATOM     36  C   UNL     1      -8.400  -2.296 -27.790  1.00  0.00     0.058 A 
ATOM     37  C   UNL     1      -7.534  -0.856 -29.538  1.00  0.00     0.012 A 
ATOM     38  C   UNL     1      -8.350  -3.369 -28.675  1.00  0.00     0.157 A 
ATOM     39  C   UNL     1      -7.486  -1.940 -30.418  1.00  0.00     0.051 A 
ATOM     40  C   UNL     1      -7.898  -3.187 -29.979  1.00  0.00     0.157 A 
BRANCH  38  41
ATOM     41  O   UNL     1      -8.736  -4.629 -28.308  1.00  0.00    -0.504 OA
ATOM     42  H   UNL     1      -9.116  -5.072 -29.086  1.00  0.00     0.293 HD
ENDBRANCH  38  41
BRANCH  40  43
ATOM     43  O   UNL     1      -7.851  -4.245 -30.840  1.00  0.00    -0.504 OA
ATOM     44  H   UNL     1      -8.295  -3.923 -31.650  1.00  0.00     0.293 HD
ENDBRANCH  40  43
ENDBRANCH  34  35
ENDBRANCH  31  33
ENDBRANCH  30  31
ENDBRANCH   4  30
TORSDOF 16
ENDMDL
MODEL 3
REMARK VINA RESULT:      -8.6      1.518      4.000
REMARK SMILES O=C(/C=C/c1ccc(O)c(O)c1)O[C@@H]1[C@H](O)C[C@@](O)(C(=O)O)C[C@H]1OC(=O)/C=C/c1ccc(O)c(O)c1
REMARK SMILES IDX 17 1 15 2 14 3 24 4 23 5 18 6 16 7 19 9 20 11 21 12 22 13
REMARK SMILES IDX 13 15 2 16 1 17 3 18 4 19 5 20 12 21 6 22 10 23 7 24 8 25
REMARK SMILES IDX 11 26 9 28 25 30 26 31 27 32 28 33 29 34 30 35 37 36 31 37
REMARK SMILES IDX 35 38 32 39 33 40 36 41 34 43
REMARK H PARENT 16 8 19 10 22 14 11 27 9 29 36 42 34 44
ROOT
ATOM      1  C   UNL     1      -8.428  -1.780 -20.627  1.00  0.00     0.083 C 
ATOM      2  C   UNL     1      -7.546  -2.180 -21.807  1.00  0.00     0.162 C 
ATOM      3  C   UNL     1      -7.752  -1.237 -23.004  1.00  0.00     0.246 C 
ATOM      4  C   UNL     1      -9.234  -1.193 -23.429  1.00  0.00     0.223 C 
ATOM      5  C   UNL     1     -10.134  -0.823 -22.246  1.00  0.00     0.097 C 
ATOM      6  C   UNL     1      -9.908  -1.726 -21.033  1.00  0.00     0.168 C 
ENDROOT
BRANCH   2   7
ATOM      7  O   UNL     1      -7.901  -3.524 -22.173  1.00  0.00    -0.389 OA
ATOM      8  H   UNL     1      -7.424  -3.718 -23.006  1.00  0.00     0.211 HD
ENDBRANCH   2   7
BRANCH   6   9
ATOM      9  O   UNL     1     -10.399  -3.048 -21.341  1.00  0.00    -0.378 OA
ATOM     10  H   UNL     1      -9.769  -3.692 -20.937  1.00  0.00     0.212 HD
ENDBRANCH   6   9
BRANCH   6  11
ATOM     11  C   UNL     1     -10.735  -1.209 -19.848  1.00  0.00     0.335 C 
ATOM     12  O   UNL     1     -10.884  -1.794 -18.786  1.00  0.00    -0.249 OA
BRANCH  11  13
ATOM     13  O   UNL     1     -11.285   0.003 -20.116  1.00  0.00    -0.479 OA
ATOM     14  H   UNL     1     -12.263  -0.096 -20.004  1.00  0.00     0.296 HD
ENDBRANCH  11  13
ENDBRANCH   6  11
BRANCH   3  15
ATOM     15  O   UNL     1      -6.970  -1.722 -24.118  1.00  0.00    -0.452 OA
BRANCH  15  16
ATOM     16  C   UNL     1      -5.870  -0.998 -24.428  1.00  0.00     0.331 C 
ATOM     17  O   UNL     1      -5.239  -0.285 -23.667  1.00  0.00    -0.247 OA
BRANCH  16  18
ATOM     18  C   UNL     1      -5.560  -1.228 -25.852  1.00  0.00     0.094 C 
ATOM     19  C   UNL     1      -4.495  -0.631 -26.408  1.00  0.00     0.016 C 
BRANCH  19  20
ATOM     20  C   UNL     1      -4.098  -0.799 -27.814  1.00  0.00    -0.021 A 
ATOM     21  C   UNL     1      -2.975  -0.097 -28.283  1.00  0.00     0.058 A 
ATOM     22  C   UNL     1      -4.834  -1.591 -28.711  1.00  0.00     0.012 A 
ATOM     23  C   UNL     1      -2.593  -0.218 -29.616  1.00  0.00     0.157 A 
ATOM     24  C   UNL     1      -4.443  -1.706 -30.048  1.00  0.00     0.051 A 
ATOM     25  C   UNL     1      -3.323  -1.019 -30.488  1.00  0.00     0.157 A 
BRANCH  23  26
ATOM     26  O   UNL     1      -1.502   0.437 -30.118  1.00  0.00    -0.504 OA
ATOM     27  H   UNL     1      -1.341   0.113 -31.022  1.00  0.00     0.293 HD
ENDBRANCH  23  26
BRANCH  25  28
ATOM     28  O   UNL     1      -2.942  -1.131 -31.794  1.00  0.00    -0.504 OA
ATOM     29  H   UNL     1      -3.739  -0.888 -32.305  1.00  0.00     0.293 HD
ENDBRANCH  25  28
ENDBRANCH  19  20
ENDBRANCH  16  18
ENDBRANCH  15  16
ENDBRANCH   3  15
BRANCH   4  30
ATOM     30  O   UNL     1      -9.417  -0.160 -24.426  1.00  0.00    -0.455 OA
BRANCH  30  31
ATOM     31  C   UNL     1     -10.168  -0.480 -25.507  1.00  0.00     0.331 C 
ATOM     32  O   UNL     1     -11.289  -0.965 -25.493  1.00  0.00    -0.247 OA
BRANCH  31  33
ATOM     33  C   UNL     1      -9.464  -0.180 -26.772  1.00  0.00     0.094 C 
ATOM     34  C   UNL     1      -8.384   0.612 -26.870  1.00  0.00     0.016 C 
BRANCH  34  35
ATOM     35  C   UNL     1      -7.695   0.877 -28.140  1.00  0.00    -0.021 A 
ATOM     36  C   UNL     1      -8.057   0.134 -29.274  1.00  0.00     0.058 A 
ATOM     37  C   UNL     1      -6.651   1.815 -28.235  1.00  0.00     0.012 A 
ATOM     38  C   UNL     1      -7.399   0.356 -30.481  1.00  0.00     0.157 A 
ATOM     39  C   UNL     1      -5.995   2.028 -29.450  1.00  0.00     0.051 A 
ATOM     40  C   UNL     1      -6.378   1.298 -30.564  1.00  0.00     0.157 A 
BRANCH  38  41
ATOM     41  O   UNL     1      -7.721  -0.332 -31.618  1.00  0.00    -0.504 OA
ATOM     42  H   UNL     1      -6.897  -0.628 -32.041  1.00  0.00     0.293 HD
ENDBRANCH  38  41
BRANCH  40  43
ATOM     43  O   UNL     1      -5.737   1.508 -31.750  1.00  0.00    -0.504 OA
ATOM     44  H   UNL     1      -6.226   0.958 -32.395  1.00  0.00     0.293 HD
ENDBRANCH  40  43
ENDBRANCH  34  35
ENDBRANCH  31  33
ENDBRANCH  30  31
ENDBRANCH   4  30
TORSDOF 16
ENDMDL
MODEL 4
REMARK VINA RESULT:      -8.6      2.221      2.942
REMARK SMILES O=C(/C=C/c1ccc(O)c(O)c1)O[C@@H]1[C@H](O)C[C@@](O)(C(=O)O)C[C@H]1OC(=O)/C=C/c1ccc(O)c(O)c1
REMARK SMILES IDX 17 1 15 2 14 3 24 4 23 5 18 6 16 7 19 9 20 11 21 12 22 13
REMARK SMILES IDX 13 15 2 16 1 17 3 18 4 19 5 20 12 21 6 22 10 23 7 24 8 25
REMARK SMILES IDX 11 26 9 28 25 30 26 31 27 32 28 33 29 34 30 35 37 36 31 37
REMARK SMILES IDX 35 38 32 39 33 40 36 41 34 43
REMARK H PARENT 16 8 19 10 22 14 11 27 9 29 36 42 34 44
ROOT
ATOM      1  C   UNL     1     -10.514  -3.593 -22.903  1.00  0.00     0.083 C 
ATOM      2  C   UNL     1     -11.026  -3.323 -24.315  1.00  0.00     0.162 C 
ATOM      3  C   UNL     1      -9.895  -2.833 -25.236  1.00  0.00     0.246 C 
ATOM      4  C   UNL     1      -9.216  -1.574 -24.660  1.00  0.00     0.223 C 
ATOM      5  C   UNL     1      -8.724  -1.821 -23.230  1.00  0.00     0.097 C 
ATOM      6  C   UNL     1      -9.829  -2.351 -22.315  1.00  0.00     0.168 C 
ENDROOT
BRANCH   2   7
ATOM      7  O   UNL     1     -12.050  -2.320 -24.217  1.00  0.00    -0.389 OA
ATOM      8  H   UNL     1     -12.262  -2.234 -23.265  1.00  0.00     0.211 HD
ENDBRANCH   2   7
BRANCH   6   9
ATOM      9  O   UNL     1     -10.790  -1.298 -22.090  1.00  0.00    -0.378 OA
ATOM     10  H   UNL     1     -11.461  -1.649 -21.457  1.00  0.00     0.212 HD
ENDBRANCH   6   9
BRANCH   6  11
ATOM     11  C   UNL     1      -9.232  -2.709 -20.946  1.00  0.00     0.335 C 
ATOM     12  O   UNL     1      -8.962  -1.907 -20.065  1.00  0.00    -0.249 OA
BRANCH  11  13
ATOM     13  O   UNL     1      -9.043  -4.048 -20.820  1.00  0.00    -0.479 OA
ATOM     14  H   UNL     1      -8.099  -4.179 -20.555  1.00  0.00     0.296 HD
ENDBRANCH  11  13
ENDBRANCH   6  11
BRANCH   3  15
ATOM     15  O   UNL     1     -10.457  -2.500 -26.526  1.00  0.00    -0.452 OA
BRANCH  15  16
ATOM     16  C   UNL     1     -10.104  -3.309 -27.551  1.00  0.00     0.331 C 
ATOM     17  O   UNL     1     -10.243  -4.519 -27.594  1.00  0.00    -0.247 OA
BRANCH  16  18
ATOM     18  C   UNL     1      -9.525  -2.468 -28.616  1.00  0.00     0.094 C 
ATOM     19  C   UNL     1     -10.079  -1.279 -28.901  1.00  0.00     0.016 C 
BRANCH  19  20
ATOM     20  C   UNL     1      -9.577  -0.365 -29.937  1.00  0.00    -0.021 A 
ATOM     21  C   UNL     1     -10.496   0.201 -30.836  1.00  0.00     0.058 A 
ATOM     22  C   UNL     1      -8.208  -0.085 -30.091  1.00  0.00     0.012 A 
ATOM     23  C   UNL     1     -10.044   1.049 -31.843  1.00  0.00     0.157 A 
ATOM     24  C   UNL     1      -7.763   0.767 -31.106  1.00  0.00     0.051 A 
ATOM     25  C   UNL     1      -8.687   1.329 -31.972  1.00  0.00     0.157 A 
BRANCH  23  26
ATOM     26  O   UNL     1     -10.900   1.633 -32.736  1.00  0.00    -0.504 OA
ATOM     27  H   UNL     1     -11.517   2.200 -32.242  1.00  0.00     0.293 HD
ENDBRANCH  23  26
BRANCH  25  28
ATOM     28  O   UNL     1      -8.253   2.161 -32.963  1.00  0.00    -0.504 OA
ATOM     29  H   UNL     1      -7.347   1.854 -33.163  1.00  0.00     0.293 HD
ENDBRANCH  25  28
ENDBRANCH  19  20
ENDBRANCH  16  18
ENDBRANCH  15  16
ENDBRANCH   3  15
BRANCH   4  30
ATOM     30  O   UNL     1      -8.045  -1.256 -25.450  1.00  0.00    -0.455 OA
BRANCH  30  31
ATOM     31  C   UNL     1      -8.034  -0.052 -26.069  1.00  0.00     0.331 C 
ATOM     32  O   UNL     1      -8.916   0.793 -26.026  1.00  0.00    -0.247 OA
BRANCH  31  33
ATOM     33  C   UNL     1      -6.796   0.153 -26.848  1.00  0.00     0.094 C 
ATOM     34  C   UNL     1      -5.967  -0.833 -27.229  1.00  0.00     0.016 C 
BRANCH  34  35
ATOM     35  C   UNL     1      -4.751  -0.600 -28.021  1.00  0.00    -0.021 A 
ATOM     36  C   UNL     1      -3.702   0.136 -27.448  1.00  0.00     0.058 A 
ATOM     37  C   UNL     1      -4.632  -1.049 -29.347  1.00  0.00     0.012 A 
ATOM     38  C   UNL     1      -2.551   0.386 -28.190  1.00  0.00     0.157 A 
ATOM     39  C   UNL     1      -3.474  -0.791 -30.085  1.00  0.00     0.051 A 
ATOM     40  C   UNL     1      -2.442  -0.077 -29.498  1.00  0.00     0.157 A 
BRANCH  38  41
ATOM     41  O   UNL     1      -1.497   1.088 -27.675  1.00  0.00    -0.504 OA
ATOM     42  H   UNL     1      -1.793   1.538 -26.866  1.00  0.00     0.293 HD
ENDBRANCH  38  41
BRANCH  40  43
ATOM     43  O   UNL     1      -1.311   0.174 -30.219  1.00  0.00    -0.504 OA
ATOM     44  H   UNL     1      -1.445  -0.305 -31.062  1.00  0.00     0.293 HD
ENDBRANCH  40  43
ENDBRANCH  34  35
ENDBRANCH  31  33
ENDBRANCH  30  31
ENDBRANCH   4  30
TORSDOF 16
ENDMDL
MODEL 5
REMARK VINA RESULT:      -8.6      2.202      2.994
REMARK SMILES O=C(/C=C/c1ccc(O)c(O)c1)O[C@@H]1[C@H](O)C[C@@](O)(C(=O)O)C[C@H]1OC(=O)/C=C/c1ccc(O)c(O)c1
REMARK SMILES IDX 17 1 15 2 14 3 24 4 23 5 18 6 16 7 19 9 20 11 21 12 22 13
REMARK SMILES IDX 13 15 2 16 1 17 3 18 4 19 5 20 12 21 6 22 10 23 7 24 8 25
REMARK SMILES IDX 11 26 9 28 25 30 26 31 27 32 28 33 29 34 30 35 37 36 31 37
REMARK SMILES IDX 35 38 32 39 33 40 36 41 34 43
REMARK H PARENT 16 8 19 10 22 14 11 27 9 29 36 42 34 44
ROOT
ATOM      1  C   UNL     1     -10.608  -2.713 -22.810  1.00  0.00     0.083 C 
ATOM      2  C   UNL     1     -10.544  -2.142 -24.224  1.00  0.00     0.162 C 
ATOM      3  C   UNL     1      -9.112  -2.190 -24.782  1.00  0.00     0.246 C 
ATOM      4  C   UNL     1      -8.128  -1.446 -23.856  1.00  0.00     0.223 C 
ATOM      5  C   UNL     1      -8.204  -1.989 -22.425  1.00  0.00     0.097 C 
ATOM      6  C   UNL     1      -9.630  -1.988 -21.874  1.00  0.00     0.168 C 
ENDROOT
BRANCH   2   7
ATOM      7  O   UNL     1     -11.001  -0.781 -24.159  1.00  0.00    -0.389 OA
ATOM      8  H   UNL     1     -11.938  -0.818 -23.875  1.00  0.00     0.211 HD
ENDBRANCH   2   7
BRANCH   6   9
ATOM      9  O   UNL     1     -10.046  -0.622 -21.665  1.00  0.00    -0.378 OA
ATOM     10  H   UNL     1      -9.276  -0.047 -21.893  1.00  0.00     0.212 HD
ENDBRANCH   6   9
BRANCH   6  11
ATOM     11  C   UNL     1      -9.649  -2.675 -20.501  1.00  0.00     0.335 C 
ATOM     12  O   UNL     1     -10.132  -2.201 -19.484  1.00  0.00    -0.249 OA
BRANCH  11  13
ATOM     13  O   UNL     1      -9.062  -3.898 -20.548  1.00  0.00    -0.479 OA
ATOM     14  H   UNL     1      -8.088  -3.751 -20.457  1.00  0.00     0.296 HD
ENDBRANCH  11  13
ENDBRANCH   6  11
BRANCH   3  15
ATOM     15  O   UNL     1      -9.095  -1.547 -26.077  1.00  0.00    -0.452 OA
BRANCH  15  16
ATOM     16  C   UNL     1      -9.318  -2.354 -27.140  1.00  0.00     0.331 C 
ATOM     17  O   UNL     1      -9.421  -3.567 -27.114  1.00  0.00    -0.247 OA
BRANCH  16  18
ATOM     18  C   UNL     1      -9.424  -1.504 -28.342  1.00  0.00     0.094 C 
ATOM     19  C   UNL     1      -8.771  -1.849 -29.462  1.00  0.00     0.016 C 
BRANCH  19  20
ATOM     20  C   UNL     1      -8.815  -1.075 -30.711  1.00  0.00    -0.021 A 
ATOM     21  C   UNL     1     -10.054  -0.898 -31.349  1.00  0.00     0.058 A 
ATOM     22  C   UNL     1      -7.656  -0.555 -31.313  1.00  0.00     0.012 A 
ATOM     23  C   UNL     1     -10.121  -0.191 -32.546  1.00  0.00     0.157 A 
ATOM     24  C   UNL     1      -7.732   0.153 -32.516  1.00  0.00     0.051 A 
ATOM     25  C   UNL     1      -8.966   0.330 -33.120  1.00  0.00     0.157 A 
BRANCH  23  26
ATOM     26  O   UNL     1     -11.304   0.016 -33.200  1.00  0.00    -0.504 OA
ATOM     27  H   UNL     1     -11.105   0.306 -34.107  1.00  0.00     0.293 HD
ENDBRANCH  23  26
BRANCH  25  28
ATOM     28  O   UNL     1      -9.040   1.021 -34.295  1.00  0.00    -0.504 OA
ATOM     29  H   UNL     1      -9.717   0.548 -34.817  1.00  0.00     0.293 HD
ENDBRANCH  25  28
ENDBRANCH  19  20
ENDBRANCH  16  18
ENDBRANCH  15  16
ENDBRANCH   3  15
BRANCH   4  30
ATOM     30  O   UNL     1      -6.773  -1.673 -24.312  1.00  0.00    -0.455 OA
BRANCH  30  31
ATOM     31  C   UNL     1      -6.019  -0.575 -24.556  1.00  0.00     0.331 C 
ATOM     32  O   UNL     1      -5.935   0.418 -23.849  1.00  0.00    -0.247 OA
BRANCH  31  33
ATOM     33  C   UNL     1      -5.272  -0.693 -25.825  1.00  0.00     0.094 C 
ATOM     34  C   UNL     1      -5.796  -0.461 -27.039  1.00  0.00     0.016 C 
BRANCH  34  35
ATOM     35  C   UNL     1      -5.023  -0.569 -28.284  1.00  0.00    -0.021 A 
ATOM     36  C   UNL     1      -4.897   0.565 -29.102  1.00  0.00     0.058 A 
ATOM     37  C   UNL     1      -4.453  -1.784 -28.699  1.00  0.00     0.012 A 
ATOM     38  C   UNL     1      -4.187   0.476 -30.296  1.00  0.00     0.157 A 
ATOM     39  C   UNL     1      -3.744  -1.864 -29.901  1.00  0.00     0.051 A 
ATOM     40  C   UNL     1      -3.615  -0.731 -30.687  1.00  0.00     0.157 A 
BRANCH  38  41
ATOM     41  O   UNL     1      -4.025   1.552 -31.123  1.00  0.00    -0.504 OA
ATOM     42  H   UNL     1      -4.352   2.345 -30.664  1.00  0.00     0.293 HD
ENDBRANCH  38  41
BRANCH  40  43
ATOM     43  O   UNL     1      -2.923  -0.810 -31.860  1.00  0.00    -0.504 OA
ATOM     44  H   UNL     1      -2.043  -0.437 -31.653  1.00  0.00     0.293 HD
ENDBRANCH  40  43
ENDBRANCH  34  35
ENDBRANCH  31  33
ENDBRANCH  30  31
ENDBRANCH   4  30
TORSDOF 16
ENDMDL
MODEL 6
REMARK VINA RESULT:      -8.4      2.182      4.557
REMARK SMILES O=C(/C=C/c1ccc(O)c(O)c1)O[C@@H]1[C@H](O)C[C@@](O)(C(=O)O)C[C@H]1OC(=O)/C=C/c1ccc(O)c(O)c1
REMARK SMILES IDX 17 1 15 2 14 3 24 4 23 5 18 6 16 7 19 9 20 11 21 12 22 13
REMARK SMILES IDX 13 15 2 16 1 17 3 18 4 19 5 20 12 21 6 22 10 23 7 24 8 25
REMARK SMILES IDX 11 26 9 28 25 30 26 31 27 32 28 33 29 34 30 35 37 36 31 37
REMARK SMILES IDX 35 38 32 39 33 40 36 41 34 43
REMARK H PARENT 16 8 19 10 22 14 11 27 9 29 36 42 34 44
ROOT
ATOM      1  C   UNL     1      -7.952  -1.506 -21.858  1.00  0.00     0.083 C 
ATOM      2  C   UNL     1      -7.385  -1.151 -23.230  1.00  0.00     0.162 C 
ATOM      3  C   UNL     1      -8.503  -1.002 -24.275  1.00  0.00     0.246 C 
ATOM      4  C   UNL     1      -9.359  -2.282 -24.360  1.00  0.00     0.223 C 
ATOM      5  C   UNL     1      -9.909  -2.667 -22.984  1.00  0.00     0.097 C 
ATOM      6  C   UNL     1      -8.812  -2.776 -21.924  1.00  0.00     0.168 C 
ENDROOT
BRANCH   2   7
ATOM      7  O   UNL     1      -6.491  -2.209 -23.613  1.00  0.00    -0.389 OA
ATOM      8  H   UNL     1      -5.697  -1.777 -23.990  1.00  0.00     0.211 HD
ENDBRANCH   2   7
BRANCH   6   9
ATOM      9  O   UNL     1      -7.994  -3.928 -22.219  1.00  0.00    -0.378 OA
ATOM     10  H   UNL     1      -7.136  -3.592 -22.572  1.00  0.00     0.212 HD
ENDBRANCH   6   9
BRANCH   6  11
ATOM     11  C   UNL     1      -9.450  -3.022 -20.550  1.00  0.00     0.335 C 
ATOM     12  O   UNL     1     -10.175  -2.235 -19.961  1.00  0.00    -0.249 OA
BRANCH  11  13
ATOM     13  O   UNL     1      -9.116  -4.242 -20.057  1.00  0.00    -0.479 OA
ATOM     14  H   UNL     1      -9.951  -4.653 -19.720  1.00  0.00     0.296 HD
ENDBRANCH  11  13
ENDBRANCH   6  11
BRANCH   3  15
ATOM     15  O   UNL     1      -7.902  -0.766 -25.569  1.00  0.00    -0.452 OA
BRANCH  15  16
ATOM     16  C   UNL     1      -7.663   0.528 -25.883  1.00  0.00     0.331 C 
ATOM     17  O   UNL     1      -8.072   1.503 -25.276  1.00  0.00    -0.247 OA
BRANCH  16  18
ATOM     18  C   UNL     1      -6.813   0.554 -27.088  1.00  0.00     0.094 C 
ATOM     19  C   UNL     1      -5.994  -0.476 -27.348  1.00  0.00     0.016 C 
BRANCH  19  20
ATOM     20  C   UNL     1      -5.112  -0.550 -28.522  1.00  0.00    -0.021 A 
ATOM     21  C   UNL     1      -5.047   0.558 -29.384  1.00  0.00     0.058 A 
ATOM     22  C   UNL     1      -4.378  -1.706 -28.838  1.00  0.00     0.012 A 
ATOM     23  C   UNL     1      -4.240   0.505 -30.516  1.00  0.00     0.157 A 
ATOM     24  C   UNL     1      -3.571  -1.750 -29.978  1.00  0.00     0.051 A 
ATOM     25  C   UNL     1      -3.507  -0.642 -30.806  1.00  0.00     0.157 A 
BRANCH  23  26
ATOM     26  O   UNL     1      -4.135   1.560 -31.381  1.00  0.00    -0.504 OA
ATOM     27  H   UNL     1      -3.279   1.497 -31.838  1.00  0.00     0.293 HD
ENDBRANCH  23  26
BRANCH  25  28
ATOM     28  O   UNL     1      -2.719  -0.686 -31.920  1.00  0.00    -0.504 OA
ATOM     29  H   UNL     1      -2.335   0.211 -31.985  1.00  0.00     0.293 HD
ENDBRANCH  25  28
ENDBRANCH  19  20
ENDBRANCH  16  18
ENDBRANCH  15  16
ENDBRANCH   3  15
BRANCH   4  30
ATOM     30  O   UNL     1     -10.505  -2.038 -25.210  1.00  0.00    -0.455 OA
BRANCH  30  31
ATOM     31  C   UNL     1     -10.772  -2.967 -26.159  1.00  0.00     0.331 C 
ATOM     32  O   UNL     1     -11.380  -4.014 -25.997  1.00  0.00    -0.247 OA
BRANCH  31  33
ATOM     33  C   UNL     1     -10.224  -2.578 -27.475  1.00  0.00     0.094 C 
ATOM     34  C   UNL     1     -10.312  -1.346 -28.000  1.00  0.00     0.016 C 
BRANCH  34  35
ATOM     35  C   UNL     1      -9.741  -0.984 -29.305  1.00  0.00    -0.021 A 
ATOM     36  C   UNL     1     -10.476  -0.144 -30.156  1.00  0.00     0.058 A 
ATOM     37  C   UNL     1      -8.508  -1.498 -29.742  1.00  0.00     0.012 A 
ATOM     38  C   UNL     1      -9.961   0.191 -31.405  1.00  0.00     0.157 A 
ATOM     39  C   UNL     1      -8.000  -1.158 -30.999  1.00  0.00     0.051 A 
ATOM     40  C   UNL     1      -8.731  -0.314 -31.818  1.00  0.00     0.157 A 
BRANCH  38  41
ATOM     41  O   UNL     1     -10.631   1.014 -32.267  1.00  0.00    -0.504 OA
ATOM     42  H   UNL     1     -11.558   1.072 -31.978  1.00  0.00     0.293 HD
ENDBRANCH  38  41
BRANCH  40  43
ATOM     43  O   UNL     1      -8.235   0.018 -33.046  1.00  0.00    -0.504 OA
ATOM     44  H   UNL     1      -8.660   0.874 -33.260  1.00  0.00     0.293 HD
ENDBRANCH  40  43
ENDBRANCH  34  35
ENDBRANCH  31  33
ENDBRANCH  30  31
ENDBRANCH   4  30
TORSDOF 16
ENDMDL
MODEL 7
REMARK VINA RESULT:      -8.3      1.827      3.439
REMARK SMILES O=C(/C=C/c1ccc(O)c(O)c1)O[C@@H]1[C@H](O)C[C@@](O)(C(=O)O)C[C@H]1OC(=O)/C=C/c1ccc(O)c(O)c1
REMARK SMILES IDX 17 1 15 2 14 3 24 4 23 5 18 6 16 7 19 9 20 11 21 12 22 13
REMARK SMILES IDX 13 15 2 16 1 17 3 18 4 19 5 20 12 21 6 22 10 23 7 24 8 25
REMARK SMILES IDX 11 26 9 28 25 30 26 31 27 32 28 33 29 34 30 35 37 36 31 37
REMARK SMILES IDX 35 38 32 39 33 40 36 41 34 43
REMARK H PARENT 16 8 19 10 22 14 11 27 9 29 36 42 34 44
ROOT
ATOM      1  C   UNL     1      -9.908  -1.610 -22.261  1.00  0.00     0.083 C 
ATOM      2  C   UNL     1      -9.561  -0.208 -22.755  1.00  0.00     0.162 C 
ATOM      3  C   UNL     1      -8.491  -0.254 -23.860  1.00  0.00     0.246 C 
ATOM      4  C   UNL     1      -7.222  -0.985 -23.375  1.00  0.00     0.223 C 
ATOM      5  C   UNL     1      -7.561  -2.382 -22.847  1.00  0.00     0.097 C 
ATOM      6  C   UNL     1      -8.655  -2.355 -21.779  1.00  0.00     0.168 C 
ENDROOT
BRANCH   2   7
ATOM      7  O   UNL     1      -9.071   0.537 -21.628  1.00  0.00    -0.389 OA
ATOM      8  H   UNL     1      -9.196  -0.036 -20.844  1.00  0.00     0.211 HD
ENDBRANCH   2   7
BRANCH   6   9
ATOM      9  O   UNL     1      -8.124  -1.738 -20.587  1.00  0.00    -0.378 OA
ATOM     10  H   UNL     1      -7.776  -2.464 -20.016  1.00  0.00     0.212 HD
ENDBRANCH   6   9
BRANCH   6  11
ATOM     11  C   UNL     1      -9.040  -3.793 -21.403  1.00  0.00     0.335 C 
ATOM     12  O   UNL     1      -9.021  -4.747 -22.165  1.00  0.00    -0.249 OA
BRANCH  11  13
ATOM     13  O   UNL     1      -9.405  -3.886 -20.099  1.00  0.00    -0.479 OA
ATOM     14  H   UNL     1      -9.674  -2.978 -19.812  1.00  0.00     0.296 HD
ENDBRANCH  11  13
ENDBRANCH   6  11
BRANCH   3  15
ATOM     15  O   UNL     1      -8.132   1.100 -24.216  1.00  0.00    -0.452 OA
BRANCH  15  16
ATOM     16  C   UNL     1      -8.703   1.586 -25.342  1.00  0.00     0.331 C 
ATOM     17  O   UNL     1      -9.024   2.744 -25.544  1.00  0.00    -0.247 OA
BRANCH  16  18
ATOM     18  C   UNL     1      -8.863   0.468 -26.291  1.00  0.00     0.094 C 
ATOM     19  C   UNL     1      -8.080   0.399 -27.379  1.00  0.00     0.016 C 
BRANCH  19  20
ATOM     20  C   UNL     1      -8.156  -0.674 -28.380  1.00  0.00    -0.021 A 
ATOM     21  C   UNL     1      -8.190  -2.006 -27.936  1.00  0.00     0.058 A 
ATOM     22  C   UNL     1      -8.139  -0.414 -29.761  1.00  0.00     0.012 A 
ATOM     23  C   UNL     1      -8.236  -3.043 -28.863  1.00  0.00     0.157 A 
ATOM     24  C   UNL     1      -8.185  -1.462 -30.686  1.00  0.00     0.051 A 
ATOM     25  C   UNL     1      -8.235  -2.768 -30.227  1.00  0.00     0.157 A 
BRANCH  23  26
ATOM     26  O   UNL     1      -8.281  -4.356 -28.480  1.00  0.00    -0.504 OA
ATOM     27  H   UNL     1      -8.225  -4.909 -29.279  1.00  0.00     0.293 HD
ENDBRANCH  23  26
BRANCH  25  28
ATOM     28  O   UNL     1      -8.279  -3.791 -31.130  1.00  0.00    -0.504 OA
ATOM     29  H   UNL     1      -8.390  -4.595 -30.586  1.00  0.00     0.293 HD
ENDBRANCH  25  28
ENDBRANCH  19  20
ENDBRANCH  16  18
ENDBRANCH  15  16
ENDBRANCH   3  15
BRANCH   4  30
ATOM     30  O   UNL     1      -6.321  -1.173 -24.492  1.00  0.00    -0.455 OA
BRANCH  30  31
ATOM     31  C   UNL     1      -5.268  -0.325 -24.577  1.00  0.00     0.331 C 
ATOM     32  O   UNL     1      -4.643   0.151 -23.641  1.00  0.00    -0.247 OA
BRANCH  31  33
ATOM     33  C   UNL     1      -4.933  -0.007 -25.981  1.00  0.00     0.094 C 
ATOM     34  C   UNL     1      -4.487  -0.902 -26.876  1.00  0.00     0.016 C 
BRANCH  34  35
ATOM     35  C   UNL     1      -4.180  -0.559 -28.272  1.00  0.00    -0.021 A 
ATOM     36  C   UNL     1      -4.317   0.775 -28.686  1.00  0.00     0.058 A 
ATOM     37  C   UNL     1      -3.804  -1.536 -29.210  1.00  0.00     0.012 A 
ATOM     38  C   UNL     1      -4.052   1.115 -30.010  1.00  0.00     0.157 A 
ATOM     39  C   UNL     1      -3.542  -1.185 -30.537  1.00  0.00     0.051 A 
ATOM     40  C   UNL     1      -3.666   0.139 -30.924  1.00  0.00     0.157 A 
BRANCH  38  41
ATOM     41  O   UNL     1      -4.159   2.401 -30.462  1.00  0.00    -0.504 OA
ATOM     42  H   UNL     1      -3.276   2.705 -30.732  1.00  0.00     0.293 HD
ENDBRANCH  38  41
BRANCH  40  43
ATOM     43  O   UNL     1      -3.410   0.480 -32.220  1.00  0.00    -0.504 OA
ATOM     44  H   UNL     1      -3.568  -0.341 -32.728  1.00  0.00     0.293 HD
ENDBRANCH  40  43
ENDBRANCH  34  35
ENDBRANCH  31  33
ENDBRANCH  30  31
ENDBRANCH   4  30
TORSDOF 16
ENDMDL
MODEL 8
REMARK VINA RESULT:      -8.1      2.231      3.717
REMARK SMILES O=C(/C=C/c1ccc(O)c(O)c1)O[C@@H]1[C@H](O)C[C@@](O)(C(=O)O)C[C@H]1OC(=O)/C=C/c1ccc(O)c(O)c1
REMARK SMILES IDX 17 1 15 2 14 3 24 4 23 5 18 6 16 7 19 9 20 11 21 12 22 13
REMARK SMILES IDX 13 15 2 16 1 17 3 18 4 19 5 20 12 21 6 22 10 23 7 24 8 25
REMARK SMILES IDX 11 26 9 28 25 30 26 31 27 32 28 33 29 34 30 35 37 36 31 37
REMARK SMILES IDX 35 38 32 39 33 40 36 41 34 43
REMARK H PARENT 16 8 19 10 22 14 11 27 9 29 36 42 34 44
ROOT
ATOM      1  C   UNL     1     -11.515  -3.267 -25.130  1.00  0.00     0.083 C 
ATOM      2  C   UNL     1     -10.331  -2.305 -25.078  1.00  0.00     0.162 C 
ATOM      3  C   UNL     1      -9.893  -1.881 -26.491  1.00  0.00     0.246 C 
ATOM      4  C   UNL     1      -9.553  -3.109 -27.360  1.00  0.00     0.223 C 
ATOM      5  C   UNL     1     -10.723  -4.097 -27.395  1.00  0.00     0.097 C 
ATOM      6  C   UNL     1     -11.197  -4.494 -25.997  1.00  0.00     0.168 C 
ENDROOT
BRANCH   2   7
ATOM      7  O   UNL     1      -9.254  -2.986 -24.413  1.00  0.00    -0.389 OA
ATOM      8  H   UNL     1      -8.810  -2.317 -23.852  1.00  0.00     0.211 HD
ENDBRANCH   2   7
BRANCH   6   9
ATOM      9  O   UNL     1     -10.178  -5.305 -25.374  1.00  0.00    -0.378 OA
ATOM     10  H   UNL     1      -9.900  -4.838 -24.550  1.00  0.00     0.212 HD
ENDBRANCH   6   9
BRANCH   6  11
ATOM     11  C   UNL     1     -12.455  -5.367 -26.110  1.00  0.00     0.335 C 
ATOM     12  O   UNL     1     -13.312  -5.480 -25.248  1.00  0.00    -0.249 OA
BRANCH  11  13
ATOM     13  O   UNL     1     -12.511  -6.006 -27.307  1.00  0.00    -0.479 OA
ATOM     14  H   UNL     1     -11.737  -6.622 -27.339  1.00  0.00     0.296 HD
ENDBRANCH  11  13
ENDBRANCH   6  11
BRANCH   3  15
ATOM     15  O   UNL     1      -8.711  -1.055 -26.383  1.00  0.00    -0.452 OA
BRANCH  15  16
ATOM     16  C   UNL     1      -8.924   0.242 -26.063  1.00  0.00     0.331 C 
ATOM     17  O   UNL     1      -9.825   0.673 -25.365  1.00  0.00    -0.247 OA
BRANCH  16  18
ATOM     18  C   UNL     1      -7.866   1.047 -26.702  1.00  0.00     0.094 C 
ATOM     19  C   UNL     1      -7.732   1.034 -28.037  1.00  0.00     0.016 C 
BRANCH  19  20
ATOM     20  C   UNL     1      -6.716   1.803 -28.770  1.00  0.00    -0.021 A 
ATOM     21  C   UNL     1      -6.080   2.870 -28.115  1.00  0.00     0.058 A 
ATOM     22  C   UNL     1      -6.402   1.540 -30.114  1.00  0.00     0.012 A 
ATOM     23  C   UNL     1      -5.132   3.631 -28.794  1.00  0.00     0.157 A 
ATOM     24  C   UNL     1      -5.450   2.310 -30.789  1.00  0.00     0.051 A 
ATOM     25  C   UNL     1      -4.821   3.348 -30.120  1.00  0.00     0.157 A 
BRANCH  23  26
ATOM     26  O   UNL     1      -4.478   4.674 -28.197  1.00  0.00    -0.504 OA
ATOM     27  H   UNL     1      -4.923   4.872 -27.355  1.00  0.00     0.293 HD
ENDBRANCH  23  26
BRANCH  25  28
ATOM     28  O   UNL     1      -3.892   4.100 -30.779  1.00  0.00    -0.504 OA
ATOM     29  H   UNL     1      -3.823   3.688 -31.663  1.00  0.00     0.293 HD
ENDBRANCH  25  28
ENDBRANCH  19  20
ENDBRANCH  16  18
ENDBRANCH  15  16
ENDBRANCH   3  15
BRANCH   4  30
ATOM     30  O   UNL     1      -9.330  -2.683 -28.726  1.00  0.00    -0.455 OA
BRANCH  30  31
ATOM     31  C   UNL     1      -8.179  -3.088 -29.312  1.00  0.00     0.331 C 
ATOM     32  O   UNL     1      -8.015  -4.114 -29.956  1.00  0.00    -0.247 OA
BRANCH  31  33
ATOM     33  C   UNL     1      -7.080  -2.128 -29.083  1.00  0.00     0.094 C 
ATOM     34  C   UNL     1      -5.992  -2.383 -28.338  1.00  0.00     0.016 C 
BRANCH  34  35
ATOM     35  C   UNL     1      -4.905  -1.413 -28.144  1.00  0.00    -0.021 A 
ATOM     36  C   UNL     1      -4.049  -1.132 -29.219  1.00  0.00     0.058 A 
ATOM     37  C   UNL     1      -4.671  -0.801 -26.900  1.00  0.00     0.012 A 
ATOM     38  C   UNL     1      -3.000  -0.233 -29.047  1.00  0.00     0.157 A 
ATOM     39  C   UNL     1      -3.614   0.098 -26.736  1.00  0.00     0.051 A 
ATOM     40  C   UNL     1      -2.789   0.376 -27.813  1.00  0.00     0.157 A 
BRANCH  38  41
ATOM     41  O   UNL     1      -2.144   0.084 -30.066  1.00  0.00    -0.504 OA
ATOM     42  H   UNL     1      -1.494   0.726 -29.732  1.00  0.00     0.293 HD
ENDBRANCH  38  41
BRANCH  40  43
ATOM     43  O   UNL     1      -1.757   1.255 -27.653  1.00  0.00    -0.504 OA
ATOM     44  H   UNL     1      -1.018   0.708 -27.317  1.00  0.00     0.293 HD
ENDBRANCH  40  43
ENDBRANCH  34  35
ENDBRANCH  31  33
ENDBRANCH  30  31
ENDBRANCH   4  30
TORSDOF 16
ENDMDL
MODEL 9
REMARK VINA RESULT:      -8.1      2.334      4.494
REMARK SMILES O=C(/C=C/c1ccc(O)c(O)c1)O[C@@H]1[C@H](O)C[C@@](O)(C(=O)O)C[C@H]1OC(=O)/C=C/c1ccc(O)c(O)c1
REMARK SMILES IDX 17 1 15 2 14 3 24 4 23 5 18 6 16 7 19 9 20 11 21 12 22 13
REMARK SMILES IDX 13 15 2 16 1 17 3 18 4 19 5 20 12 21 6 22 10 23 7 24 8 25
REMARK SMILES IDX 11 26 9 28 25 30 26 31 27 32 28 33 29 34 30 35 37 36 31 37
REMARK SMILES IDX 35 38 32 39 33 40 36 41 34 43
REMARK H PARENT 16 8 19 10 22 14 11 27 9 29 36 42 34 44
ROOT
ATOM      1  C   UNL     1      -8.298  -1.020 -22.193  1.00  0.00     0.083 C 
ATOM      2  C   UNL     1      -7.700  -0.436 -23.471  1.00  0.00     0.162 C 
ATOM      3  C   UNL     1      -8.669  -0.579 -24.657  1.00  0.00     0.246 C 
ATOM      4  C   UNL     1      -9.068  -2.052 -24.874  1.00  0.00     0.223 C 
ATOM      5  C   UNL     1      -9.641  -2.661 -23.591  1.00  0.00     0.097 C 
ATOM      6  C   UNL     1      -8.707  -2.487 -22.393  1.00  0.00     0.168 C 
ENDROOT
BRANCH   2   7
ATOM      7  O   UNL     1      -6.482  -1.148 -23.741  1.00  0.00    -0.389 OA
ATOM      8  H   UNL     1      -5.761  -0.487 -23.702  1.00  0.00     0.211 HD
ENDBRANCH   2   7
BRANCH   6   9
ATOM      9  O   UNL     1      -7.542  -3.317 -22.588  1.00  0.00    -0.378 OA
ATOM     10  H   UNL     1      -6.843  -2.983 -21.976  1.00  0.00     0.212 HD
ENDBRANCH   6   9
BRANCH   6  11
ATOM     11  C   UNL     1      -9.405  -2.990 -21.121  1.00  0.00     0.335 C 
ATOM     12  O   UNL     1      -9.027  -3.926 -20.435  1.00  0.00    -0.249 OA
BRANCH  11  13
ATOM     13  O   UNL     1     -10.510  -2.254 -20.836  1.00  0.00    -0.479 OA
ATOM     14  H   UNL     1     -11.291  -2.843 -20.982  1.00  0.00     0.296 HD
ENDBRANCH  11  13
ENDBRANCH   6  11
BRANCH   3  15
ATOM     15  O   UNL     1      -8.012  -0.101 -25.853  1.00  0.00    -0.452 OA
BRANCH  15  16
ATOM     16  C   UNL     1      -8.141   1.221 -26.110  1.00  0.00     0.331 C 
ATOM     17  O   UNL     1      -8.665   2.048 -25.385  1.00  0.00    -0.247 OA
BRANCH  16  18
ATOM     18  C   UNL     1      -7.526   1.491 -27.424  1.00  0.00     0.094 C 
ATOM     19  C   UNL     1      -6.495   0.742 -27.844  1.00  0.00     0.016 C 
BRANCH  19  20
ATOM     20  C   UNL     1      -5.817   0.925 -29.136  1.00  0.00    -0.021 A 
ATOM     21  C   UNL     1      -4.942  -0.078 -29.584  1.00  0.00     0.058 A 
ATOM     22  C   UNL     1      -5.974   2.091 -29.906  1.00  0.00     0.012 A 
ATOM     23  C   UNL     1      -4.268   0.082 -30.791  1.00  0.00     0.157 A 
ATOM     24  C   UNL     1      -5.293   2.243 -31.117  1.00  0.00     0.051 A 
ATOM     25  C   UNL     1      -4.447   1.235 -31.550  1.00  0.00     0.157 A 
BRANCH  23  26
ATOM     26  O   UNL     1      -3.413  -0.870 -31.275  1.00  0.00    -0.504 OA
ATOM     27  H   UNL     1      -2.522  -0.683 -30.932  1.00  0.00     0.293 HD
ENDBRANCH  23  26
BRANCH  25  28
ATOM     28  O   UNL     1      -3.781   1.384 -32.732  1.00  0.00    -0.504 OA
ATOM     29  H   UNL     1      -4.361   1.958 -33.271  1.00  0.00     0.293 HD
ENDBRANCH  25  28
ENDBRANCH  19  20
ENDBRANCH  16  18
ENDBRANCH  15  16
ENDBRANCH   3  15
BRANCH   4  30
ATOM     30  O   UNL     1     -10.117  -2.124 -25.870  1.00  0.00    -0.455 OA
BRANCH  30  31
ATOM     31  C   UNL     1     -10.037  -3.132 -26.771  1.00  0.00     0.331 C 
ATOM     32  O   UNL     1     -10.224  -4.319 -26.548  1.00  0.00    -0.247 OA
BRANCH  31  33
ATOM     33  C   UNL     1      -9.678  -2.638 -28.116  1.00  0.00     0.094 C 
ATOM     34  C   UNL     1      -9.862  -1.376 -28.535  1.00  0.00     0.016 C 
BRANCH  34  35
ATOM     35  C   UNL     1      -9.476  -0.909 -29.874  1.00  0.00    -0.021 A 
ATOM     36  C   UNL     1     -10.396  -0.151 -30.616  1.00  0.00     0.058 A 
ATOM     37  C   UNL     1      -8.238  -1.244 -30.448  1.00  0.00     0.012 A 
ATOM     38  C   UNL     1     -10.057   0.281 -31.895  1.00  0.00     0.157 A 
ATOM     39  C   UNL     1      -7.908  -0.807 -31.734  1.00  0.00     0.051 A 
ATOM     40  C   UNL     1      -8.821  -0.046 -32.445  1.00  0.00     0.157 A 
BRANCH  38  41
ATOM     41  O   UNL     1     -10.911   1.031 -32.656  1.00  0.00    -0.504 OA
ATOM     42  H   UNL     1     -10.413   1.777 -33.031  1.00  0.00     0.293 HD
ENDBRANCH  38  41
BRANCH  40  43
ATOM     43  O   UNL     1      -8.498   0.380 -33.701  1.00  0.00    -0.504 OA
ATOM     44  H   UNL     1      -7.734  -0.173 -33.960  1.00  0.00     0.293 HD
ENDBRANCH  40  43
ENDBRANCH  34  35
ENDBRANCH  31  33
ENDBRANCH  30  31
ENDBRANCH   4  30
TORSDOF 16
ENDMDL
MODEL 10
REMARK VINA RESULT:      -8.1      2.255      5.928
REMARK SMILES O=C(/C=C/c1ccc(O)c(O)c1)O[C@@H]1[C@H](O)C[C@@](O)(C(=O)O)C[C@H]1OC(=O)/C=C/c1ccc(O)c(O)c1
REMARK SMILES IDX 17 1 15 2 14 3 24 4 23 5 18 6 16 7 19 9 20 11 21 12 22 13
REMARK SMILES IDX 13 15 2 16 1 17 3 18 4 19 5 20 12 21 6 22 10 23 7 24 8 25
REMARK SMILES IDX 11 26 9 28 25 30 26 31 27 32 28 33 29 34 30 35 37 36 31 37
REMARK SMILES IDX 35 38 32 39 33 40 36 41 34 43
REMARK H PARENT 16 8 19 10 22 14 11 27 9 29 36 42 34 44
ROOT
ATOM      1  C   UNL     1      -8.238  -2.011 -20.793  1.00  0.00     0.083 C 
ATOM      2  C   UNL     1      -7.321  -2.301 -21.978  1.00  0.00     0.162 C 
ATOM      3  C   UNL     1      -7.364  -1.162 -23.011  1.00  0.00     0.246 C 
ATOM      4  C   UNL     1      -8.805  -0.904 -23.496  1.00  0.00     0.223 C 
ATOM      5  C   UNL     1      -9.743  -0.642 -22.314  1.00  0.00     0.097 C 
ATOM      6  C   UNL     1      -9.678  -1.746 -21.258  1.00  0.00     0.168 C 
ENDROOT
BRANCH   2   7
ATOM      7  O   UNL     1      -7.770  -3.527 -22.579  1.00  0.00    -0.389 OA
ATOM      8  H   UNL     1      -7.655  -3.419 -23.545  1.00  0.00     0.211 HD
ENDBRANCH   2   7
BRANCH   6   9
ATOM      9  O   UNL     1     -10.264  -2.946 -21.805  1.00  0.00    -0.378 OA
ATOM     10  H   UNL     1     -10.248  -3.627 -21.091  1.00  0.00     0.212 HD
ENDBRANCH   6   9
BRANCH   6  11
ATOM     11  C   UNL     1     -10.531  -1.346 -20.045  1.00  0.00     0.335 C 
ATOM     12  O   UNL     1     -10.562  -1.944 -18.981  1.00  0.00    -0.249 OA
BRANCH  11  13
ATOM     13  O   UNL     1     -11.254  -0.224 -20.293  1.00  0.00    -0.479 OA
ATOM     14  H   UNL     1     -11.716   0.010 -19.450  1.00  0.00     0.296 HD
ENDBRANCH  11  13
ENDBRANCH   6  11
BRANCH   3  15
ATOM     15  O   UNL     1      -6.557  -1.537 -24.151  1.00  0.00    -0.452 OA
BRANCH  15  16
ATOM     16  C   UNL     1      -5.520  -0.716 -24.437  1.00  0.00     0.331 C 
ATOM     17  O   UNL     1      -4.983   0.060 -23.667  1.00  0.00    -0.247 OA
BRANCH  16  18
ATOM     18  C   UNL     1      -5.148  -0.930 -25.848  1.00  0.00     0.094 C 
ATOM     19  C   UNL     1      -4.447   0.009 -26.503  1.00  0.00     0.016 C 
BRANCH  19  20
ATOM     20  C   UNL     1      -4.023  -0.109 -27.905  1.00  0.00    -0.021 A 
ATOM     21  C   UNL     1      -5.005  -0.304 -28.890  1.00  0.00     0.058 A 
ATOM     22  C   UNL     1      -2.669  -0.089 -28.283  1.00  0.00     0.012 A 
ATOM     23  C   UNL     1      -4.629  -0.445 -30.223  1.00  0.00     0.157 A 
ATOM     24  C   UNL     1      -2.300  -0.232 -29.624  1.00  0.00     0.051 A 
ATOM     25  C   UNL     1      -3.285  -0.406 -30.583  1.00  0.00     0.157 A 
BRANCH  23  26
ATOM     26  O   UNL     1      -5.548  -0.627 -31.219  1.00  0.00    -0.504 OA
ATOM     27  H   UNL     1      -6.036   0.206 -31.340  1.00  0.00     0.293 HD
ENDBRANCH  23  26
BRANCH  25  28
ATOM     28  O   UNL     1      -2.925  -0.547 -31.891  1.00  0.00    -0.504 OA
ATOM     29  H   UNL     1      -3.674  -1.019 -32.304  1.00  0.00     0.293 HD
ENDBRANCH  25  28
ENDBRANCH  19  20
ENDBRANCH  16  18
ENDBRANCH  15  16
ENDBRANCH   3  15
BRANCH   4  30
ATOM     30  O   UNL     1      -8.830   0.288 -24.316  1.00  0.00    -0.455 OA
BRANCH  30  31
ATOM     31  C   UNL     1      -8.939   0.108 -25.654  1.00  0.00     0.331 C 
ATOM     32  O   UNL     1      -8.752   0.953 -26.517  1.00  0.00    -0.247 OA
BRANCH  31  33
ATOM     33  C   UNL     1      -9.332  -1.276 -25.990  1.00  0.00     0.094 C 
ATOM     34  C   UNL     1     -10.528  -1.625 -26.490  1.00  0.00     0.016 C 
BRANCH  34  35
ATOM     35  C   UNL     1     -10.884  -3.009 -26.832  1.00  0.00    -0.021 A 
ATOM     36  C   UNL     1     -12.055  -3.560 -26.290  1.00  0.00     0.058 A 
ATOM     37  C   UNL     1     -10.058  -3.808 -27.643  1.00  0.00     0.012 A 
ATOM     38  C   UNL     1     -12.397  -4.877 -26.586  1.00  0.00     0.157 A 
ATOM     39  C   UNL     1     -10.408  -5.129 -27.932  1.00  0.00     0.051 A 
ATOM     40  C   UNL     1     -11.577  -5.651 -27.402  1.00  0.00     0.157 A 
BRANCH  38  41
ATOM     41  O   UNL     1     -13.532  -5.458 -26.093  1.00  0.00    -0.504 OA
ATOM     42  H   UNL     1     -13.342  -6.393 -25.905  1.00  0.00     0.293 HD
ENDBRANCH  38  41
BRANCH  40  43
ATOM     43  O   UNL     1     -11.918  -6.942 -27.685  1.00  0.00    -0.504 OA
ATOM     44  H   UNL     1     -11.082  -7.361 -27.972  1.00  0.00     0.293 HD
ENDBRANCH  40  43
ENDBRANCH  34  35
ENDBRANCH  31  33
ENDBRANCH  30  31
ENDBRANCH   4  30
TORSDOF 16
ENDMDL
