MODEL 1
REMARK VINA RESULT:      -8.1      0.000      0.000
REMARK SMILES O=C(/C=C/c1ccc(O)c(O)c1)O[C@H](Cc1ccc(O)c(O)c1)C(=O)O
REMARK SMILES IDX 13 1 14 2 15 3 16 4 17 5 18 6 19 7 23 8 21 9 20 10 22 12
REMARK SMILES IDX 24 14 25 15 26 16 2 18 1 19 3 20 4 21 5 22 12 23 6 24 10 25
REMARK SMILES IDX 7 26 8 27 11 28 9 30
REMARK H PARENT 20 11 22 13 26 17 11 29 9 31
ROOT
ATOM      1  O   UNL     1      -8.298  -0.135 -32.230  1.00  0.00    -0.447 OA
ENDROOT
BRANCH   1   2
ATOM      2  C   UNL     1      -9.444   0.467 -31.603  1.00  0.00     0.290 C 
BRANCH   2   3
ATOM      3  C   UNL     1      -9.898  -0.448 -30.453  1.00  0.00     0.093 C 
BRANCH   3   4
ATOM      4  C   UNL     1      -8.752  -0.913 -29.580  1.00  0.00    -0.040 A 
ATOM      5  C   UNL     1      -8.233  -2.211 -29.722  1.00  0.00     0.008 A 
ATOM      6  C   UNL     1      -7.165  -2.648 -28.931  1.00  0.00     0.050 A 
ATOM      7  C   UNL     1      -6.615  -1.782 -27.996  1.00  0.00     0.157 A 
ATOM      8  C   UNL     1      -8.193  -0.058 -28.617  1.00  0.00     0.054 A 
ATOM      9  C   UNL     1      -7.128  -0.497 -27.844  1.00  0.00     0.157 A 
BRANCH   7  10
ATOM     10  O   UNL     1      -5.566  -2.146 -27.198  1.00  0.00    -0.504 OA
ATOM     11  H   UNL     1      -4.928  -1.412 -27.185  1.00  0.00     0.293 HD
ENDBRANCH   7  10
BRANCH   9  12
ATOM     12  O   UNL     1      -6.581   0.351 -26.925  1.00  0.00    -0.504 OA
ATOM     13  H   UNL     1      -6.869   1.241 -27.210  1.00  0.00     0.293 HD
ENDBRANCH   9  12
ENDBRANCH   3   4
ENDBRANCH   2   3
BRANCH   2  14
ATOM     14  C   UNL     1     -10.602   0.663 -32.593  1.00  0.00     0.345 C 
ATOM     15  O   UNL     1     -11.370  -0.221 -32.946  1.00  0.00    -0.248 OA
BRANCH  14  16
ATOM     16  O   UNL     1     -10.721   1.930 -33.056  1.00  0.00    -0.478 OA
ATOM     17  H   UNL     1     -10.119   2.580 -32.618  1.00  0.00     0.296 HD
ENDBRANCH  14  16
ENDBRANCH   2  14
ENDBRANCH   1   2
BRANCH   1  18
ATOM     18  C   UNL     1      -7.468   0.729 -32.857  1.00  0.00     0.331 C 
ATOM     19  O   UNL     1      -7.593   1.105 -34.012  1.00  0.00    -0.247 OA
BRANCH  18  20
ATOM     20  C   UNL     1      -6.374   1.089 -31.940  1.00  0.00     0.094 C 
ATOM     21  C   UNL     1      -5.710   0.126 -31.284  1.00  0.00     0.016 C 
BRANCH  21  22
ATOM     22  C   UNL     1      -4.622   0.398 -30.337  1.00  0.00    -0.021 A 
ATOM     23  C   UNL     1      -4.560   1.599 -29.611  1.00  0.00     0.058 A 
ATOM     24  C   UNL     1      -3.659  -0.597 -30.104  1.00  0.00     0.012 A 
ATOM     25  C   UNL     1      -3.534   1.794 -28.692  1.00  0.00     0.157 A 
ATOM     26  C   UNL     1      -2.629  -0.390 -29.182  1.00  0.00     0.051 A 
ATOM     27  C   UNL     1      -2.576   0.806 -28.485  1.00  0.00     0.157 A 
BRANCH  25  28
ATOM     28  O   UNL     1      -3.428   2.943 -27.959  1.00  0.00    -0.504 OA
ATOM     29  H   UNL     1      -2.862   2.765 -27.189  1.00  0.00     0.293 HD
ENDBRANCH  25  28
BRANCH  27  30
ATOM     30  O   UNL     1      -1.575   1.005 -27.578  1.00  0.00    -0.504 OA
ATOM     31  H   UNL     1      -1.753   1.892 -27.207  1.00  0.00     0.293 HD
ENDBRANCH  27  30
ENDBRANCH  21  22
ENDBRANCH  18  20
ENDBRANCH   1  18
TORSDOF 12
ENDMDL
MODEL 2
REMARK VINA RESULT:      -7.9      2.947      6.934
REMARK SMILES O=C(/C=C/c1ccc(O)c(O)c1)O[C@H](Cc1ccc(O)c(O)c1)C(=O)O
REMARK SMILES IDX 13 1 14 2 15 3 16 4 17 5 18 6 19 7 23 8 21 9 20 10 22 12
REMARK SMILES IDX 24 14 25 15 26 16 2 18 1 19 3 20 4 21 5 22 12 23 6 24 10 25
REMARK SMILES IDX 7 26 8 27 11 28 9 30
REMARK H PARENT 20 11 22 13 26 17 11 29 9 31
ROOT
ATOM      1  O   UNL     1      -6.021  -0.790 -30.633  1.00  0.00    -0.447 OA
ENDROOT
BRANCH   1   2
ATOM      2  C   UNL     1      -5.379   0.496 -30.591  1.00  0.00     0.290 C 
BRANCH   2   3
ATOM      3  C   UNL     1      -6.465   1.581 -30.694  1.00  0.00     0.093 C 
BRANCH   3   4
ATOM      4  C   UNL     1      -7.686   1.122 -31.463  1.00  0.00    -0.040 A 
ATOM      5  C   UNL     1      -7.640   1.006 -32.863  1.00  0.00     0.008 A 
ATOM      6  C   UNL     1      -8.756   0.571 -33.585  1.00  0.00     0.050 A 
ATOM      7  C   UNL     1      -9.922   0.250 -32.902  1.00  0.00     0.157 A 
ATOM      8  C   UNL     1      -8.878   0.809 -30.793  1.00  0.00     0.054 A 
ATOM      9  C   UNL     1      -9.978   0.369 -31.516  1.00  0.00     0.157 A 
BRANCH   7  10
ATOM     10  O   UNL     1     -11.044  -0.188 -33.549  1.00  0.00    -0.504 OA
ATOM     11  H   UNL     1     -10.779  -0.510 -34.428  1.00  0.00     0.293 HD
ENDBRANCH   7  10
BRANCH   9  12
ATOM     12  O   UNL     1     -11.126   0.049 -30.851  1.00  0.00    -0.504 OA
ATOM     13  H   UNL     1     -11.625  -0.511 -31.478  1.00  0.00     0.293 HD
ENDBRANCH   9  12
ENDBRANCH   3   4
ENDBRANCH   2   3
BRANCH   2  14
ATOM     14  C   UNL     1      -4.369   0.669 -31.735  1.00  0.00     0.345 C 
ATOM     15  O   UNL     1      -4.363   1.607 -32.520  1.00  0.00    -0.248 OA
BRANCH  14  16
ATOM     16  O   UNL     1      -3.446  -0.321 -31.809  1.00  0.00    -0.478 OA
ATOM     17  H   UNL     1      -3.793  -1.171 -32.175  1.00  0.00     0.296 HD
ENDBRANCH  14  16
ENDBRANCH   2  14
ENDBRANCH   1   2
BRANCH   1  18
ATOM     18  C   UNL     1      -5.491  -1.722 -29.810  1.00  0.00     0.331 C 
ATOM     19  O   UNL     1      -4.297  -1.872 -29.601  1.00  0.00    -0.247 OA
BRANCH  18  20
ATOM     20  C   UNL     1      -6.579  -2.551 -29.265  1.00  0.00     0.094 C 
ATOM     21  C   UNL     1      -7.685  -2.763 -29.992  1.00  0.00     0.016 C 
BRANCH  21  22
ATOM     22  C   UNL     1      -8.824  -3.557 -29.515  1.00  0.00    -0.021 A 
ATOM     23  C   UNL     1      -9.525  -4.426 -30.367  1.00  0.00     0.058 A 
ATOM     24  C   UNL     1      -9.176  -3.492 -28.157  1.00  0.00     0.012 A 
ATOM     25  C   UNL     1     -10.570  -5.192 -29.859  1.00  0.00     0.157 A 
ATOM     26  C   UNL     1     -10.230  -4.261 -27.657  1.00  0.00     0.051 A 
ATOM     27  C   UNL     1     -10.919  -5.105 -28.515  1.00  0.00     0.157 A 
BRANCH  25  28
ATOM     28  O   UNL     1     -11.282  -6.055 -30.644  1.00  0.00    -0.504 OA
ATOM     29  H   UNL     1     -11.865  -5.534 -31.223  1.00  0.00     0.293 HD
ENDBRANCH  25  28
BRANCH  27  30
ATOM     30  O   UNL     1     -11.943  -5.862 -28.025  1.00  0.00    -0.504 OA
ATOM     31  H   UNL     1     -12.089  -5.521 -27.119  1.00  0.00     0.293 HD
ENDBRANCH  27  30
ENDBRANCH  21  22
ENDBRANCH  18  20
ENDBRANCH   1  18
TORSDOF 12
ENDMDL
MODEL 3
REMARK VINA RESULT:      -7.7      1.912      3.323
REMARK SMILES O=C(/C=C/c1ccc(O)c(O)c1)O[C@H](Cc1ccc(O)c(O)c1)C(=O)O
REMARK SMILES IDX 13 1 14 2 15 3 16 4 17 5 18 6 19 7 23 8 21 9 20 10 22 12
REMARK SMILES IDX 24 14 25 15 26 16 2 18 1 19 3 20 4 21 5 22 12 23 6 24 10 25
REMARK SMILES IDX 7 26 8 27 11 28 9 30
REMARK H PARENT 20 11 22 13 26 17 11 29 9 31
ROOT
ATOM      1  O   UNL     1      -9.070  -0.863 -30.727  1.00  0.00    -0.447 OA
ENDROOT
BRANCH   1   2
ATOM      2  C   UNL     1      -9.153  -0.004 -31.878  1.00  0.00     0.290 C 
BRANCH   2   3
ATOM      3  C   UNL     1      -9.086   1.455 -31.394  1.00  0.00     0.093 C 
BRANCH   3   4
ATOM      4  C   UNL     1      -7.680   1.897 -31.044  1.00  0.00    -0.040 A 
ATOM      5  C   UNL     1      -6.653   1.813 -32.000  1.00  0.00     0.008 A 
ATOM      6  C   UNL     1      -5.353   2.230 -31.694  1.00  0.00     0.050 A 
ATOM      7  C   UNL     1      -5.082   2.733 -30.428  1.00  0.00     0.157 A 
ATOM      8  C   UNL     1      -7.383   2.392 -29.766  1.00  0.00     0.054 A 
ATOM      9  C   UNL     1      -6.093   2.812 -29.475  1.00  0.00     0.157 A 
BRANCH   7  10
ATOM     10  O   UNL     1      -3.835   3.164 -30.070  1.00  0.00    -0.504 OA
ATOM     11  H   UNL     1      -3.693   4.041 -30.466  1.00  0.00     0.293 HD
ENDBRANCH   7  10
BRANCH   9  12
ATOM     12  O   UNL     1      -5.822   3.310 -28.233  1.00  0.00    -0.504 OA
ATOM     13  H   UNL     1      -5.464   2.548 -27.736  1.00  0.00     0.293 HD
ENDBRANCH   9  12
ENDBRANCH   3   4
ENDBRANCH   2   3
BRANCH   2  14
ATOM     14  C   UNL     1     -10.452  -0.226 -32.666  1.00  0.00     0.345 C 
ATOM     15  O   UNL     1     -10.584  -0.008 -33.862  1.00  0.00    -0.248 OA
BRANCH  14  16
ATOM     16  O   UNL     1     -11.474  -0.708 -31.919  1.00  0.00    -0.478 OA
ATOM     17  H   UNL     1     -12.102  -1.286 -32.417  1.00  0.00     0.296 HD
ENDBRANCH  14  16
ENDBRANCH   2  14
ENDBRANCH   1   2
BRANCH   1  18
ATOM     18  C   UNL     1      -8.194  -1.887 -30.838  1.00  0.00     0.331 C 
ATOM     19  O   UNL     1      -8.497  -3.041 -31.096  1.00  0.00    -0.247 OA
BRANCH  18  20
ATOM     20  C   UNL     1      -6.841  -1.390 -30.542  1.00  0.00     0.094 C 
ATOM     21  C   UNL     1      -6.468  -1.188 -29.270  1.00  0.00     0.016 C 
BRANCH  21  22
ATOM     22  C   UNL     1      -5.147  -0.674 -28.888  1.00  0.00    -0.021 A 
ATOM     23  C   UNL     1      -4.105  -0.553 -29.822  1.00  0.00     0.058 A 
ATOM     24  C   UNL     1      -4.944  -0.233 -27.570  1.00  0.00     0.012 A 
ATOM     25  C   UNL     1      -2.883  -0.020 -29.424  1.00  0.00     0.157 A 
ATOM     26  C   UNL     1      -3.712   0.297 -27.178  1.00  0.00     0.051 A 
ATOM     27  C   UNL     1      -2.691   0.398 -28.110  1.00  0.00     0.157 A 
BRANCH  25  28
ATOM     28  O   UNL     1      -1.838   0.122 -30.293  1.00  0.00    -0.504 OA
ATOM     29  H   UNL     1      -1.096  -0.419 -29.972  1.00  0.00     0.293 HD
ENDBRANCH  25  28
BRANCH  27  30
ATOM     30  O   UNL     1      -1.491   0.923 -27.729  1.00  0.00    -0.504 OA
ATOM     31  H   UNL     1      -1.710   1.813 -27.387  1.00  0.00     0.293 HD
ENDBRANCH  27  30
ENDBRANCH  21  22
ENDBRANCH  18  20
ENDBRANCH   1  18
TORSDOF 12
ENDMDL
MODEL 4
REMARK VINA RESULT:      -7.7      2.142      2.764
REMARK SMILES O=C(/C=C/c1ccc(O)c(O)c1)O[C@H](Cc1ccc(O)c(O)c1)C(=O)O
REMARK SMILES IDX 13 1 14 2 15 3 16 4 17 5 18 6 19 7 23 8 21 9 20 10 22 12
REMARK SMILES IDX 24 14 25 15 26 16 2 18 1 19 3 20 4 21 5 22 12 23 6 24 10 25
REMARK SMILES IDX 7 26 8 27 11 28 9 30
REMARK H PARENT 20 11 22 13 26 17 11 29 9 31
ROOT
ATOM      1  O   UNL     1      -8.030  -0.041 -33.000  1.00  0.00    -0.447 OA
ENDROOT
BRANCH   1   2
ATOM      2  C   UNL     1      -9.283  -0.007 -32.293  1.00  0.00     0.290 C 
BRANCH   2   3
ATOM      3  C   UNL     1      -9.633  -1.442 -31.865  1.00  0.00     0.093 C 
BRANCH   3   4
ATOM      4  C   UNL     1      -9.481  -1.668 -30.376  1.00  0.00    -0.040 A 
ATOM      5  C   UNL     1      -9.837  -0.657 -29.466  1.00  0.00     0.008 A 
ATOM      6  C   UNL     1      -9.714  -0.857 -28.087  1.00  0.00     0.050 A 
ATOM      7  C   UNL     1      -9.235  -2.073 -27.618  1.00  0.00     0.157 A 
ATOM      8  C   UNL     1      -8.984  -2.883 -29.883  1.00  0.00     0.054 A 
ATOM      9  C   UNL     1      -8.875  -3.076 -28.513  1.00  0.00     0.157 A 
BRANCH   7  10
ATOM     10  O   UNL     1      -9.099  -2.333 -26.283  1.00  0.00    -0.504 OA
ATOM     11  H   UNL     1      -8.305  -2.881 -26.161  1.00  0.00     0.293 HD
ENDBRANCH   7  10
BRANCH   9  12
ATOM     12  O   UNL     1      -8.408  -4.271 -28.046  1.00  0.00    -0.504 OA
ATOM     13  H   UNL     1      -8.668  -4.284 -27.103  1.00  0.00     0.293 HD
ENDBRANCH   9  12
ENDBRANCH   3   4
ENDBRANCH   2   3
BRANCH   2  14
ATOM     14  C   UNL     1     -10.414   0.562 -33.162  1.00  0.00     0.345 C 
ATOM     15  O   UNL     1     -10.907  -0.011 -34.123  1.00  0.00    -0.248 OA
BRANCH  14  16
ATOM     16  O   UNL     1     -10.850   1.783 -32.768  1.00  0.00    -0.478 OA
ATOM     17  H   UNL     1     -11.563   2.162 -33.338  1.00  0.00     0.296 HD
ENDBRANCH  14  16
ENDBRANCH   2  14
ENDBRANCH   1   2
BRANCH   1  18
ATOM     18  C   UNL     1      -7.103   0.842 -32.565  1.00  0.00     0.331 C 
ATOM     19  O   UNL     1      -6.515   1.642 -33.275  1.00  0.00    -0.247 OA
BRANCH  18  20
ATOM     20  C   UNL     1      -6.886   0.635 -31.124  1.00  0.00     0.094 C 
ATOM     21  C   UNL     1      -6.174  -0.420 -30.702  1.00  0.00     0.016 C 
BRANCH  21  22
ATOM     22  C   UNL     1      -5.929  -0.712 -29.284  1.00  0.00    -0.021 A 
ATOM     23  C   UNL     1      -6.250   0.211 -28.275  1.00  0.00     0.058 A 
ATOM     24  C   UNL     1      -5.421  -1.972 -28.928  1.00  0.00     0.012 A 
ATOM     25  C   UNL     1      -6.040  -0.128 -26.942  1.00  0.00     0.157 A 
ATOM     26  C   UNL     1      -5.210  -2.302 -27.586  1.00  0.00     0.051 A 
ATOM     27  C   UNL     1      -5.521  -1.374 -26.605  1.00  0.00     0.157 A 
BRANCH  25  28
ATOM     28  O   UNL     1      -6.338   0.732 -25.922  1.00  0.00    -0.504 OA
ATOM     29  H   UNL     1      -7.291   0.672 -25.738  1.00  0.00     0.293 HD
ENDBRANCH  25  28
BRANCH  27  30
ATOM     30  O   UNL     1      -5.322  -1.699 -25.294  1.00  0.00    -0.504 OA
ATOM     31  H   UNL     1      -4.402  -2.030 -25.261  1.00  0.00     0.293 HD
ENDBRANCH  27  30
ENDBRANCH  21  22
ENDBRANCH  18  20
ENDBRANCH   1  18
TORSDOF 12
ENDMDL
MODEL 5
REMARK VINA RESULT:      -7.7      1.708      6.151
REMARK SMILES O=C(/C=C/c1ccc(O)c(O)c1)O[C@H](Cc1ccc(O)c(O)c1)C(=O)O
REMARK SMILES IDX 13 1 14 2 15 3 16 4 17 5 18 6 19 7 23 8 21 9 20 10 22 12
REMARK SMILES IDX 24 14 25 15 26 16 2 18 1 19 3 20 4 21 5 22 12 23 6 24 10 25
REMARK SMILES IDX 7 26 8 27 11 28 9 30
REMARK H PARENT 20 11 22 13 26 17 11 29 9 31
ROOT
ATOM      1  O   UNL     1      -4.329   1.558 -28.437  1.00  0.00    -0.447 OA
ENDROOT
BRANCH   1   2
ATOM      2  C   UNL     1      -3.666   0.371 -28.905  1.00  0.00     0.290 C 
BRANCH   2   3
ATOM      3  C   UNL     1      -4.109  -0.808 -28.023  1.00  0.00     0.093 C 
BRANCH   3   4
ATOM      4  C   UNL     1      -5.479  -1.339 -28.391  1.00  0.00    -0.040 A 
ATOM      5  C   UNL     1      -5.741  -1.777 -29.700  1.00  0.00     0.008 A 
ATOM      6  C   UNL     1      -6.998  -2.281 -30.050  1.00  0.00     0.050 A 
ATOM      7  C   UNL     1      -7.994  -2.348 -29.085  1.00  0.00     0.157 A 
ATOM      8  C   UNL     1      -6.503  -1.399 -27.434  1.00  0.00     0.054 A 
ATOM      9  C   UNL     1      -7.744  -1.910 -27.788  1.00  0.00     0.157 A 
BRANCH   7  10
ATOM     10  O   UNL     1      -9.240  -2.838 -29.362  1.00  0.00    -0.504 OA
ATOM     11  H   UNL     1      -9.219  -3.804 -29.242  1.00  0.00     0.293 HD
ENDBRANCH   7  10
BRANCH   9  12
ATOM     12  O   UNL     1      -8.727  -1.982 -26.843  1.00  0.00    -0.504 OA
ATOM     13  H   UNL     1      -8.332  -1.572 -26.047  1.00  0.00     0.293 HD
ENDBRANCH   9  12
ENDBRANCH   3   4
ENDBRANCH   2   3
BRANCH   2  14
ATOM     14  C   UNL     1      -2.137   0.510 -28.850  1.00  0.00     0.345 C 
ATOM     15  O   UNL     1      -1.384   0.265 -29.782  1.00  0.00    -0.248 OA
BRANCH  14  16
ATOM     16  O   UNL     1      -1.667   0.949 -27.658  1.00  0.00    -0.478 OA
ATOM     17  H   UNL     1      -0.842   1.489 -27.722  1.00  0.00     0.296 HD
ENDBRANCH  14  16
ENDBRANCH   2  14
ENDBRANCH   1   2
BRANCH   1  18
ATOM     18  C   UNL     1      -4.762   2.393 -29.407  1.00  0.00     0.331 C 
ATOM     19  O   UNL     1      -4.179   3.402 -29.772  1.00  0.00    -0.247 OA
BRANCH  18  20
ATOM     20  C   UNL     1      -6.066   1.918 -29.899  1.00  0.00     0.094 C 
ATOM     21  C   UNL     1      -6.215   1.600 -31.193  1.00  0.00     0.016 C 
BRANCH  21  22
ATOM     22  C   UNL     1      -7.484   1.141 -31.770  1.00  0.00    -0.021 A 
ATOM     23  C   UNL     1      -8.620   0.924 -30.973  1.00  0.00     0.058 A 
ATOM     24  C   UNL     1      -7.579   0.978 -33.162  1.00  0.00     0.012 A 
ATOM     25  C   UNL     1      -9.814   0.531 -31.570  1.00  0.00     0.157 A 
ATOM     26  C   UNL     1      -8.781   0.579 -33.752  1.00  0.00     0.051 A 
ATOM     27  C   UNL     1      -9.888   0.357 -32.949  1.00  0.00     0.157 A 
BRANCH  25  28
ATOM     28  O   UNL     1     -10.949   0.309 -30.841  1.00  0.00    -0.504 OA
ATOM     29  H   UNL     1     -11.543   1.070 -30.959  1.00  0.00     0.293 HD
ENDBRANCH  25  28
BRANCH  27  30
ATOM     30  O   UNL     1     -11.064  -0.025 -33.526  1.00  0.00    -0.504 OA
ATOM     31  H   UNL     1     -10.795  -0.540 -34.314  1.00  0.00     0.293 HD
ENDBRANCH  27  30
ENDBRANCH  21  22
ENDBRANCH  18  20
ENDBRANCH   1  18
TORSDOF 12
ENDMDL
MODEL 6
REMARK VINA RESULT:      -7.7      2.212      5.957
REMARK SMILES O=C(/C=C/c1ccc(O)c(O)c1)O[C@H](Cc1ccc(O)c(O)c1)C(=O)O
REMARK SMILES IDX 13 1 14 2 15 3 16 4 17 5 18 6 19 7 23 8 21 9 20 10 22 12
REMARK SMILES IDX 24 14 25 15 26 16 2 18 1 19 3 20 4 21 5 22 12 23 6 24 10 25
REMARK SMILES IDX 7 26 8 27 11 28 9 30
REMARK H PARENT 20 11 22 13 26 17 11 29 9 31
ROOT
ATOM      1  O   UNL     1      -3.654   2.006 -29.826  1.00  0.00    -0.447 OA
ENDROOT
BRANCH   1   2
ATOM      2  C   UNL     1      -3.829   0.582 -29.925  1.00  0.00     0.290 C 
BRANCH   2   3
ATOM      3  C   UNL     1      -2.984  -0.084 -28.826  1.00  0.00     0.093 C 
BRANCH   3   4
ATOM      4  C   UNL     1      -3.813  -0.564 -27.653  1.00  0.00    -0.040 A 
ATOM      5  C   UNL     1      -4.467  -1.807 -27.709  1.00  0.00     0.008 A 
ATOM      6  C   UNL     1      -5.225  -2.268 -26.627  1.00  0.00     0.050 A 
ATOM      7  C   UNL     1      -5.326  -1.484 -25.487  1.00  0.00     0.157 A 
ATOM      8  C   UNL     1      -3.941   0.222 -26.498  1.00  0.00     0.054 A 
ATOM      9  C   UNL     1      -4.687  -0.248 -25.427  1.00  0.00     0.157 A 
BRANCH   7  10
ATOM     10  O   UNL     1      -6.045  -1.882 -24.394  1.00  0.00    -0.504 OA
ATOM     11  H   UNL     1      -6.698  -1.189 -24.193  1.00  0.00     0.293 HD
ENDBRANCH   7  10
BRANCH   9  12
ATOM     12  O   UNL     1      -4.788   0.517 -24.301  1.00  0.00    -0.504 OA
ATOM     13  H   UNL     1      -4.765   1.438 -24.628  1.00  0.00     0.293 HD
ENDBRANCH   9  12
ENDBRANCH   3   4
ENDBRANCH   2   3
BRANCH   2  14
ATOM     14  C   UNL     1      -3.403   0.047 -31.299  1.00  0.00     0.345 C 
ATOM     15  O   UNL     1      -3.033  -1.099 -31.513  1.00  0.00    -0.248 OA
BRANCH  14  16
ATOM     16  O   UNL     1      -3.477   0.963 -32.295  1.00  0.00    -0.478 OA
ATOM     17  H   UNL     1      -3.118   0.650 -33.161  1.00  0.00     0.296 HD
ENDBRANCH  14  16
ENDBRANCH   2  14
ENDBRANCH   1   2
BRANCH   1  18
ATOM     18  C   UNL     1      -4.690   2.674 -29.271  1.00  0.00     0.331 C 
ATOM     19  O   UNL     1      -4.590   3.700 -28.616  1.00  0.00    -0.247 OA
BRANCH  18  20
ATOM     20  C   UNL     1      -5.933   1.932 -29.538  1.00  0.00     0.094 C 
ATOM     21  C   UNL     1      -6.636   2.186 -30.651  1.00  0.00     0.016 C 
BRANCH  21  22
ATOM     22  C   UNL     1      -7.896   1.509 -30.982  1.00  0.00    -0.021 A 
ATOM     23  C   UNL     1      -8.828   2.077 -31.866  1.00  0.00     0.058 A 
ATOM     24  C   UNL     1      -8.141   0.233 -30.450  1.00  0.00     0.012 A 
ATOM     25  C   UNL     1      -9.988   1.378 -32.184  1.00  0.00     0.157 A 
ATOM     26  C   UNL     1      -9.311  -0.460 -30.771  1.00  0.00     0.051 A 
ATOM     27  C   UNL     1     -10.226   0.120 -31.636  1.00  0.00     0.157 A 
BRANCH  25  28
ATOM     28  O   UNL     1     -10.925   1.883 -33.041  1.00  0.00    -0.504 OA
ATOM     29  H   UNL     1     -10.732   1.555 -33.936  1.00  0.00     0.293 HD
ENDBRANCH  25  28
BRANCH  27  30
ATOM     30  O   UNL     1     -11.365  -0.560 -31.956  1.00  0.00    -0.504 OA
ATOM     31  H   UNL     1     -12.061  -0.143 -31.409  1.00  0.00     0.293 HD
ENDBRANCH  27  30
ENDBRANCH  21  22
ENDBRANCH  18  20
ENDBRANCH   1  18
TORSDOF 12
ENDMDL
MODEL 7
REMARK VINA RESULT:      -7.6      2.927      6.961
REMARK SMILES O=C(/C=C/c1ccc(O)c(O)c1)O[C@H](Cc1ccc(O)c(O)c1)C(=O)O
REMARK SMILES IDX 13 1 14 2 15 3 16 4 17 5 18 6 19 7 23 8 21 9 20 10 22 12
REMARK SMILES IDX 24 14 25 15 26 16 2 18 1 19 3 20 4 21 5 22 12 23 6 24 10 25
REMARK SMILES IDX 7 26 8 27 11 28 9 30
REMARK H PARENT 20 11 22 13 26 17 11 29 9 31
ROOT
ATOM      1  O   UNL     1      -6.235  -0.608 -30.617  1.00  0.00    -0.447 OA
ENDROOT
BRANCH   1   2
ATOM      2  C   UNL     1      -5.807   0.664 -30.100  1.00  0.00     0.290 C 
BRANCH   2   3
ATOM      3  C   UNL     1      -7.030   1.595 -30.042  1.00  0.00     0.093 C 
BRANCH   3   4
ATOM      4  C   UNL     1      -8.236   1.033 -30.764  1.00  0.00    -0.040 A 
ATOM      5  C   UNL     1      -9.178   0.254 -30.070  1.00  0.00     0.008 A 
ATOM      6  C   UNL     1     -10.303  -0.262 -30.722  1.00  0.00     0.050 A 
ATOM      7  C   UNL     1     -10.486   0.006 -32.072  1.00  0.00     0.157 A 
ATOM      8  C   UNL     1      -8.430   1.277 -32.132  1.00  0.00     0.054 A 
ATOM      9  C   UNL     1      -9.554   0.771 -32.768  1.00  0.00     0.157 A 
BRANCH   7  10
ATOM     10  O   UNL     1     -11.569  -0.462 -32.764  1.00  0.00    -0.504 OA
ATOM     11  H   UNL     1     -11.323  -1.310 -33.172  1.00  0.00     0.293 HD
ENDBRANCH   7  10
BRANCH   9  12
ATOM     12  O   UNL     1      -9.741   1.033 -34.095  1.00  0.00    -0.504 OA
ATOM     13  H   UNL     1     -10.024   0.178 -34.475  1.00  0.00     0.293 HD
ENDBRANCH   9  12
ENDBRANCH   3   4
ENDBRANCH   2   3
BRANCH   2  14
ATOM     14  C   UNL     1      -4.716   1.299 -30.973  1.00  0.00     0.345 C 
ATOM     15  O   UNL     1      -4.872   1.645 -32.136  1.00  0.00    -0.248 OA
BRANCH  14  16
ATOM     16  O   UNL     1      -3.530   1.465 -30.339  1.00  0.00    -0.478 OA
ATOM     17  H   UNL     1      -3.470   2.292 -29.802  1.00  0.00     0.296 HD
ENDBRANCH  14  16
ENDBRANCH   2  14
ENDBRANCH   1   2
BRANCH   1  18
ATOM     18  C   UNL     1      -5.743  -1.686 -29.967  1.00  0.00     0.331 C 
ATOM     19  O   UNL     1      -4.566  -2.013 -29.946  1.00  0.00    -0.247 OA
BRANCH  18  20
ATOM     20  C   UNL     1      -6.858  -2.420 -29.347  1.00  0.00     0.094 C 
ATOM     21  C   UNL     1      -7.668  -3.171 -30.108  1.00  0.00     0.016 C 
BRANCH  21  22
ATOM     22  C   UNL     1      -8.815  -3.916 -29.575  1.00  0.00    -0.021 A 
ATOM     23  C   UNL     1      -9.628  -4.709 -30.402  1.00  0.00     0.058 A 
ATOM     24  C   UNL     1      -9.061  -3.885 -28.193  1.00  0.00     0.012 A 
ATOM     25  C   UNL     1     -10.677  -5.432 -29.844  1.00  0.00     0.157 A 
ATOM     26  C   UNL     1     -10.121  -4.612 -27.642  1.00  0.00     0.051 A 
ATOM     27  C   UNL     1     -10.920  -5.379 -28.475  1.00  0.00     0.157 A 
BRANCH  25  28
ATOM     28  O   UNL     1     -11.496  -6.220 -30.603  1.00  0.00    -0.504 OA
ATOM     29  H   UNL     1     -11.085  -7.098 -30.689  1.00  0.00     0.293 HD
ENDBRANCH  25  28
BRANCH  27  30
ATOM     30  O   UNL     1     -11.950  -6.095 -27.936  1.00  0.00    -0.504 OA
ATOM     31  H   UNL     1     -11.729  -7.027 -28.132  1.00  0.00     0.293 HD
ENDBRANCH  27  30
ENDBRANCH  21  22
ENDBRANCH  18  20
ENDBRANCH   1  18
TORSDOF 12
ENDMDL
MODEL 8
REMARK VINA RESULT:      -7.6      1.951      3.587
REMARK SMILES O=C(/C=C/c1ccc(O)c(O)c1)O[C@H](Cc1ccc(O)c(O)c1)C(=O)O
REMARK SMILES IDX 13 1 14 2 15 3 16 4 17 5 18 6 19 7 23 8 21 9 20 10 22 12
REMARK SMILES IDX 24 14 25 15 26 16 2 18 1 19 3 20 4 21 5 22 12 23 6 24 10 25
REMARK SMILES IDX 7 26 8 27 11 28 9 30
REMARK H PARENT 20 11 22 13 26 17 11 29 9 31
ROOT
ATOM      1  O   UNL     1      -9.091  -1.169 -30.700  1.00  0.00    -0.447 OA
ENDROOT
BRANCH   1   2
ATOM      2  C   UNL     1      -8.841  -0.198 -31.731  1.00  0.00     0.290 C 
BRANCH   2   3
ATOM      3  C   UNL     1      -8.889   1.202 -31.096  1.00  0.00     0.093 C 
BRANCH   3   4
ATOM      4  C   UNL     1      -7.515   1.751 -30.774  1.00  0.00    -0.040 A 
ATOM      5  C   UNL     1      -7.275   2.384 -29.543  1.00  0.00     0.008 A 
ATOM      6  C   UNL     1      -6.008   2.885 -29.227  1.00  0.00     0.050 A 
ATOM      7  C   UNL     1      -4.977   2.748 -30.147  1.00  0.00     0.157 A 
ATOM      8  C   UNL     1      -6.464   1.638 -31.698  1.00  0.00     0.054 A 
ATOM      9  C   UNL     1      -5.208   2.128 -31.372  1.00  0.00     0.157 A 
BRANCH   7  10
ATOM     10  O   UNL     1      -3.714   3.208 -29.895  1.00  0.00    -0.504 OA
ATOM     11  H   UNL     1      -3.788   4.100 -29.512  1.00  0.00     0.293 HD
ENDBRANCH   7  10
BRANCH   9  12
ATOM     12  O   UNL     1      -4.189   1.994 -32.271  1.00  0.00    -0.504 OA
ATOM     13  H   UNL     1      -4.319   2.732 -32.900  1.00  0.00     0.293 HD
ENDBRANCH   9  12
ENDBRANCH   3   4
ENDBRANCH   2   3
BRANCH   2  14
ATOM     14  C   UNL     1      -9.876  -0.286 -32.863  1.00  0.00     0.345 C 
ATOM     15  O   UNL     1     -11.077  -0.102 -32.721  1.00  0.00    -0.248 OA
BRANCH  14  16
ATOM     16  O   UNL     1      -9.344  -0.581 -34.074  1.00  0.00    -0.478 OA
ATOM     17  H   UNL     1      -8.367  -0.444 -34.131  1.00  0.00     0.296 HD
ENDBRANCH  14  16
ENDBRANCH   2  14
ENDBRANCH   1   2
BRANCH   1  18
ATOM     18  C   UNL     1      -8.215  -2.197 -30.656  1.00  0.00     0.331 C 
ATOM     19  O   UNL     1      -8.515  -3.376 -30.766  1.00  0.00    -0.247 OA
BRANCH  18  20
ATOM     20  C   UNL     1      -6.867  -1.665 -30.399  1.00  0.00     0.094 C 
ATOM     21  C   UNL     1      -6.491  -1.377 -29.144  1.00  0.00     0.016 C 
BRANCH  21  22
ATOM     22  C   UNL     1      -5.176  -0.823 -28.803  1.00  0.00    -0.021 A 
ATOM     23  C   UNL     1      -4.163  -0.681 -29.767  1.00  0.00     0.058 A 
ATOM     24  C   UNL     1      -4.950  -0.363 -27.495  1.00  0.00     0.012 A 
ATOM     25  C   UNL     1      -2.947  -0.109 -29.406  1.00  0.00     0.157 A 
ATOM     26  C   UNL     1      -3.724   0.205 -27.142  1.00  0.00     0.051 A 
ATOM     27  C   UNL     1      -2.732   0.326 -28.102  1.00  0.00     0.157 A 
BRANCH  25  28
ATOM     28  O   UNL     1      -1.930   0.054 -30.305  1.00  0.00    -0.504 OA
ATOM     29  H   UNL     1      -1.924   0.982 -30.597  1.00  0.00     0.293 HD
ENDBRANCH  25  28
BRANCH  27  30
ATOM     30  O   UNL     1      -1.537   0.889 -27.758  1.00  0.00    -0.504 OA
ATOM     31  H   UNL     1      -0.871   0.210 -27.989  1.00  0.00     0.293 HD
ENDBRANCH  27  30
ENDBRANCH  21  22
ENDBRANCH  18  20
ENDBRANCH   1  18
TORSDOF 12
ENDMDL
MODEL 9
REMARK VINA RESULT:      -7.5      2.393      4.160
REMARK SMILES O=C(/C=C/c1ccc(O)c(O)c1)O[C@H](Cc1ccc(O)c(O)c1)C(=O)O
REMARK SMILES IDX 13 1 14 2 15 3 16 4 17 5 18 6 19 7 23 8 21 9 20 10 22 12
REMARK SMILES IDX 24 14 25 15 26 16 2 18 1 19 3 20 4 21 5 22 12 23 6 24 10 25
REMARK SMILES IDX 7 26 8 27 11 28 9 30
REMARK H PARENT 20 11 22 13 26 17 11 29 9 31
ROOT
ATOM      1  O   UNL     1      -6.769  -0.085 -31.377  1.00  0.00    -0.447 OA
ENDROOT
BRANCH   1   2
ATOM      2  C   UNL     1      -7.100  -0.932 -30.263  1.00  0.00     0.290 C 
BRANCH   2   3
ATOM      3  C   UNL     1      -5.887  -1.828 -29.963  1.00  0.00     0.093 C 
BRANCH   3   4
ATOM      4  C   UNL     1      -4.727  -1.068 -29.354  1.00  0.00    -0.040 A 
ATOM      5  C   UNL     1      -4.751  -0.707 -27.996  1.00  0.00     0.008 A 
ATOM      6  C   UNL     1      -3.681  -0.016 -27.417  1.00  0.00     0.050 A 
ATOM      7  C   UNL     1      -2.584   0.312 -28.201  1.00  0.00     0.157 A 
ATOM      8  C   UNL     1      -3.616  -0.712 -30.133  1.00  0.00     0.054 A 
ATOM      9  C   UNL     1      -2.555  -0.036 -29.549  1.00  0.00     0.157 A 
BRANCH   7  10
ATOM     10  O   UNL     1      -1.503   0.979 -27.694  1.00  0.00    -0.504 OA
ATOM     11  H   UNL     1      -1.804   1.506 -26.933  1.00  0.00     0.293 HD
ENDBRANCH   7  10
BRANCH   9  12
ATOM     12  O   UNL     1      -1.472   0.288 -30.314  1.00  0.00    -0.504 OA
ATOM     13  H   UNL     1      -1.834   0.849 -31.028  1.00  0.00     0.293 HD
ENDBRANCH   9  12
ENDBRANCH   3   4
ENDBRANCH   2   3
BRANCH   2  14
ATOM     14  C   UNL     1      -8.328  -1.807 -30.554  1.00  0.00     0.345 C 
ATOM     15  O   UNL     1      -8.284  -3.003 -30.804  1.00  0.00    -0.248 OA
BRANCH  14  16
ATOM     16  O   UNL     1      -9.506  -1.139 -30.503  1.00  0.00    -0.478 OA
ATOM     17  H   UNL     1      -9.504  -0.362 -29.891  1.00  0.00     0.296 HD
ENDBRANCH  14  16
ENDBRANCH   2  14
ENDBRANCH   1   2
BRANCH   1  18
ATOM     18  C   UNL     1      -7.181   1.198 -31.263  1.00  0.00     0.331 C 
ATOM     19  O   UNL     1      -8.342   1.569 -31.344  1.00  0.00    -0.247 OA
BRANCH  18  20
ATOM     20  C   UNL     1      -6.003   2.064 -31.089  1.00  0.00     0.094 C 
ATOM     21  C   UNL     1      -5.848   2.758 -29.952  1.00  0.00     0.016 C 
BRANCH  21  22
ATOM     22  C   UNL     1      -4.717   3.660 -29.705  1.00  0.00    -0.021 A 
ATOM     23  C   UNL     1      -4.380   4.684 -30.607  1.00  0.00     0.058 A 
ATOM     24  C   UNL     1      -3.996   3.534 -28.506  1.00  0.00     0.012 A 
ATOM     25  C   UNL     1      -3.326   5.542 -30.309  1.00  0.00     0.157 A 
ATOM     26  C   UNL     1      -2.937   4.398 -28.218  1.00  0.00     0.051 A 
ATOM     27  C   UNL     1      -2.611   5.395 -29.124  1.00  0.00     0.157 A 
BRANCH  25  28
ATOM     28  O   UNL     1      -2.959   6.555 -31.150  1.00  0.00    -0.504 OA
ATOM     29  H   UNL     1      -3.761   7.036 -31.419  1.00  0.00     0.293 HD
ENDBRANCH  25  28
BRANCH  27  30
ATOM     30  O   UNL     1      -1.581   6.244 -28.839  1.00  0.00    -0.504 OA
ATOM     31  H   UNL     1      -2.007   7.118 -28.728  1.00  0.00     0.293 HD
ENDBRANCH  27  30
ENDBRANCH  21  22
ENDBRANCH  18  20
ENDBRANCH   1  18
TORSDOF 12
ENDMDL
MODEL 10
REMARK VINA RESULT:      -7.4      2.392      4.930
REMARK SMILES O=C(/C=C/c1ccc(O)c(O)c1)O[C@H](Cc1ccc(O)c(O)c1)C(=O)O
REMARK SMILES IDX 13 1 14 2 15 3 16 4 17 5 18 6 19 7 23 8 21 9 20 10 22 12
REMARK SMILES IDX 24 14 25 15 26 16 2 18 1 19 3 20 4 21 5 22 12 23 6 24 10 25
REMARK SMILES IDX 7 26 8 27 11 28 9 30
REMARK H PARENT 20 11 22 13 26 17 11 29 9 31
ROOT
ATOM      1  O   UNL     1      -9.374  -2.245 -28.501  1.00  0.00    -0.447 OA
ENDROOT
BRANCH   1   2
ATOM      2  C   UNL     1      -8.917  -3.110 -29.555  1.00  0.00     0.290 C 
BRANCH   2   3
ATOM      3  C   UNL     1      -9.707  -2.772 -30.831  1.00  0.00     0.093 C 
BRANCH   3   4
ATOM      4  C   UNL     1      -9.325  -1.433 -31.425  1.00  0.00    -0.040 A 
ATOM      5  C   UNL     1      -7.972  -1.064 -31.530  1.00  0.00     0.008 A 
ATOM      6  C   UNL     1      -7.604   0.165 -32.088  1.00  0.00     0.050 A 
ATOM      7  C   UNL     1      -8.594   1.025 -32.545  1.00  0.00     0.157 A 
ATOM      8  C   UNL     1     -10.310  -0.542 -31.878  1.00  0.00     0.054 A 
ATOM      9  C   UNL     1      -9.936   0.669 -32.439  1.00  0.00     0.157 A 
BRANCH   7  10
ATOM     10  O   UNL     1      -8.299   2.236 -33.108  1.00  0.00    -0.504 OA
ATOM     11  H   UNL     1      -7.350   2.246 -33.323  1.00  0.00     0.293 HD
ENDBRANCH   7  10
BRANCH   9  12
ATOM     12  O   UNL     1     -10.903   1.519 -32.894  1.00  0.00    -0.504 OA
ATOM     13  H   UNL     1     -10.763   1.556 -33.861  1.00  0.00     0.293 HD
ENDBRANCH   9  12
ENDBRANCH   3   4
ENDBRANCH   2   3
BRANCH   2  14
ATOM     14  C   UNL     1      -9.112  -4.592 -29.206  1.00  0.00     0.345 C 
ATOM     15  O   UNL     1      -9.053  -5.509 -30.013  1.00  0.00    -0.248 OA
BRANCH  14  16
ATOM     16  O   UNL     1      -9.352  -4.821 -27.892  1.00  0.00    -0.478 OA
ATOM     17  H   UNL     1      -8.554  -5.094 -27.377  1.00  0.00     0.296 HD
ENDBRANCH  14  16
ENDBRANCH   2  14
ENDBRANCH   1   2
BRANCH   1  18
ATOM     18  C   UNL     1      -8.449  -1.947 -27.562  1.00  0.00     0.331 C 
ATOM     19  O   UNL     1      -8.600  -2.095 -26.359  1.00  0.00    -0.247 OA
BRANCH  18  20
ATOM     20  C   UNL     1      -7.268  -1.367 -28.224  1.00  0.00     0.094 C 
ATOM     21  C   UNL     1      -6.038  -1.734 -27.836  1.00  0.00     0.016 C 
BRANCH  21  22
ATOM     22  C   UNL     1      -4.810  -1.189 -28.427  1.00  0.00    -0.021 A 
ATOM     23  C   UNL     1      -4.520  -1.337 -29.793  1.00  0.00     0.058 A 
ATOM     24  C   UNL     1      -3.938  -0.445 -27.615  1.00  0.00     0.012 A 
ATOM     25  C   UNL     1      -3.365  -0.764 -30.316  1.00  0.00     0.157 A 
ATOM     26  C   UNL     1      -2.778   0.122 -28.149  1.00  0.00     0.051 A 
ATOM     27  C   UNL     1      -2.502  -0.044 -29.496  1.00  0.00     0.157 A 
BRANCH  25  28
ATOM     28  O   UNL     1      -3.038  -0.876 -31.639  1.00  0.00    -0.504 OA
ATOM     29  H   UNL     1      -3.606  -1.556 -32.040  1.00  0.00     0.293 HD
ENDBRANCH  25  28
BRANCH  27  30
ATOM     30  O   UNL     1      -1.373   0.517 -30.019  1.00  0.00    -0.504 OA
ATOM     31  H   UNL     1      -1.378   1.436 -29.684  1.00  0.00     0.293 HD
ENDBRANCH  27  30
ENDBRANCH  21  22
ENDBRANCH  18  20
ENDBRANCH   1  18
TORSDOF 12
ENDMDL
