MODEL 1
REMARK VINA RESULT:      -8.4      0.000      0.000
REMARK SMILES O=C(/C=C/c1ccc(O)c(O)c1)O[C@@H]1C[C@](O)(C(=O)O)C[C@@H](O)[C@H]1O
REMARK SMILES IDX 2 1 1 2 13 3 14 4 21 5 22 6 16 7 24 8 15 9 23 10 17 12 18 14
REMARK SMILES IDX 19 15 20 16 25 18 3 20 4 21 5 22 12 23 6 24 10 25 7 26 8 27
REMARK SMILES IDX 11 28 9 30
REMARK H PARENT 23 11 17 13 20 17 25 19 11 29 9 31
ROOT
ATOM      1  C   UNL     1      -5.057   3.036 -30.364  1.00  0.00     0.331 C 
ATOM      2  O   UNL     1      -4.912   4.244 -30.494  1.00  0.00    -0.247 OA
ENDROOT
BRANCH   1   3
ATOM      3  O   UNL     1      -4.097   2.161 -29.981  1.00  0.00    -0.456 OA
BRANCH   3   4
ATOM      4  C   UNL     1      -4.560   0.842 -29.622  1.00  0.00     0.211 C 
ATOM      5  C   UNL     1      -4.015  -1.717 -28.206  1.00  0.00     0.082 C 
ATOM      6  C   UNL     1      -3.898  -1.618 -29.727  1.00  0.00     0.150 C 
ATOM      7  C   UNL     1      -4.993  -0.679 -27.640  1.00  0.00     0.167 C 
ATOM      8  C   UNL     1      -3.574  -0.190 -30.199  1.00  0.00     0.184 C 
ATOM      9  C   UNL     1      -4.630   0.733 -28.095  1.00  0.00     0.095 C 
BRANCH   6  10
ATOM     10  O   UNL     1      -5.114  -2.045 -30.363  1.00  0.00    -0.390 OA
ATOM     11  H   UNL     1      -5.802  -2.152 -29.674  1.00  0.00     0.211 HD
ENDBRANCH   6  10
BRANCH   7  12
ATOM     12  O   UNL     1      -6.320  -1.010 -28.110  1.00  0.00    -0.378 OA
ATOM     13  H   UNL     1      -6.585  -1.846 -27.671  1.00  0.00     0.212 HD
ENDBRANCH   7  12
BRANCH   7  14
ATOM     14  C   UNL     1      -4.984  -0.779 -26.107  1.00  0.00     0.335 C 
ATOM     15  O   UNL     1      -5.445  -1.705 -25.460  1.00  0.00    -0.249 OA
BRANCH  14  16
ATOM     16  O   UNL     1      -4.411   0.312 -25.538  1.00  0.00    -0.479 OA
ATOM     17  H   UNL     1      -3.584   0.047 -25.075  1.00  0.00     0.296 HD
ENDBRANCH  14  16
ENDBRANCH   7  14
BRANCH   8  18
ATOM     18  O   UNL     1      -3.627  -0.158 -31.632  1.00  0.00    -0.387 OA
ATOM     19  H   UNL     1      -3.402  -1.064 -31.928  1.00  0.00     0.211 HD
ENDBRANCH   8  18
ENDBRANCH   3   4
ENDBRANCH   1   3
BRANCH   1  20
ATOM     20  C   UNL     1      -6.336   2.360 -30.662  1.00  0.00     0.094 C 
ATOM     21  C   UNL     1      -6.745   2.036 -31.899  1.00  0.00     0.016 C 
BRANCH  21  22
ATOM     22  C   UNL     1      -8.016   1.353 -32.174  1.00  0.00    -0.021 A 
ATOM     23  C   UNL     1      -8.948   1.084 -31.158  1.00  0.00     0.058 A 
ATOM     24  C   UNL     1      -8.327   1.014 -33.500  1.00  0.00     0.012 A 
ATOM     25  C   UNL     1     -10.152   0.464 -31.480  1.00  0.00     0.157 A 
ATOM     26  C   UNL     1      -9.537   0.390 -33.813  1.00  0.00     0.051 A 
ATOM     27  C   UNL     1     -10.439   0.118 -32.796  1.00  0.00     0.157 A 
BRANCH  25  28
ATOM     28  O   UNL     1     -11.094   0.178 -30.529  1.00  0.00    -0.504 OA
ATOM     29  H   UNL     1     -11.202   0.959 -29.960  1.00  0.00     0.293 HD
ENDBRANCH  25  28
BRANCH  27  30
ATOM     30  O   UNL     1     -11.623  -0.488 -33.101  1.00  0.00    -0.504 OA
ATOM     31  H   UNL     1     -12.298   0.037 -32.625  1.00  0.00     0.293 HD
ENDBRANCH  27  30
ENDBRANCH  21  22
ENDBRANCH   1  20
TORSDOF 11
ENDMDL
MODEL 2
REMARK VINA RESULT:      -8.1      1.720      4.179
REMARK SMILES O=C(/C=C/c1ccc(O)c(O)c1)O[C@@H]1C[C@](O)(C(=O)O)C[C@@H](O)[C@H]1O
REMARK SMILES IDX 2 1 1 2 13 3 14 4 21 5 22 6 16 7 24 8 15 9 23 10 17 12 18 14
REMARK SMILES IDX 19 15 20 16 25 18 3 20 4 21 5 22 12 23 6 24 10 25 7 26 8 27
REMARK SMILES IDX 11 28 9 30
REMARK H PARENT 23 11 17 13 20 17 25 19 11 29 9 31
ROOT
ATOM      1  C   UNL     1      -6.973  -1.148 -27.094  1.00  0.00     0.331 C 
ATOM      2  O   UNL     1      -7.490  -1.361 -26.007  1.00  0.00    -0.247 OA
ENDROOT
BRANCH   1   3
ATOM      3  O   UNL     1      -5.709  -1.479 -27.448  1.00  0.00    -0.456 OA
BRANCH   3   4
ATOM      4  C   UNL     1      -4.898  -0.399 -27.957  1.00  0.00     0.211 C 
ATOM      5  C   UNL     1      -2.197   0.561 -28.752  1.00  0.00     0.082 C 
ATOM      6  C   UNL     1      -2.822   0.981 -27.422  1.00  0.00     0.150 C 
ATOM      7  C   UNL     1      -3.263   0.207 -29.797  1.00  0.00     0.167 C 
ATOM      8  C   UNL     1      -3.836  -0.051 -26.898  1.00  0.00     0.184 C 
ATOM      9  C   UNL     1      -4.236  -0.844 -29.266  1.00  0.00     0.095 C 
BRANCH   6  10
ATOM     10  O   UNL     1      -3.484   2.250 -27.546  1.00  0.00    -0.390 OA
ATOM     11  H   UNL     1      -3.781   2.355 -28.473  1.00  0.00     0.211 HD
ENDBRANCH   6  10
BRANCH   7  12
ATOM     12  O   UNL     1      -3.987   1.414 -30.124  1.00  0.00    -0.378 OA
ATOM     13  H   UNL     1      -4.010   1.970 -29.315  1.00  0.00     0.212 HD
ENDBRANCH   7  12
BRANCH   7  14
ATOM     14  C   UNL     1      -2.558  -0.293 -31.068  1.00  0.00     0.335 C 
ATOM     15  O   UNL     1      -3.036  -1.071 -31.877  1.00  0.00    -0.249 OA
BRANCH  14  16
ATOM     16  O   UNL     1      -1.307   0.222 -31.181  1.00  0.00    -0.479 OA
ATOM     17  H   UNL     1      -1.005   0.153 -32.116  1.00  0.00     0.296 HD
ENDBRANCH  14  16
ENDBRANCH   7  14
BRANCH   8  18
ATOM     18  O   UNL     1      -4.477   0.488 -25.733  1.00  0.00    -0.387 OA
ATOM     19  H   UNL     1      -5.049  -0.229 -25.388  1.00  0.00     0.211 HD
ENDBRANCH   8  18
ENDBRANCH   3   4
ENDBRANCH   1   3
BRANCH   1  20
ATOM     20  C   UNL     1      -7.683  -0.437 -28.177  1.00  0.00     0.094 C 
ATOM     21  C   UNL     1      -8.162  -1.032 -29.281  1.00  0.00     0.016 C 
BRANCH  21  22
ATOM     22  C   UNL     1      -8.877  -0.308 -30.340  1.00  0.00    -0.021 A 
ATOM     23  C   UNL     1      -9.991  -0.860 -30.995  1.00  0.00     0.058 A 
ATOM     24  C   UNL     1      -8.465   0.994 -30.663  1.00  0.00     0.012 A 
ATOM     25  C   UNL     1     -10.651  -0.117 -31.968  1.00  0.00     0.157 A 
ATOM     26  C   UNL     1      -9.133   1.732 -31.645  1.00  0.00     0.051 A 
ATOM     27  C   UNL     1     -10.221   1.166 -32.290  1.00  0.00     0.157 A 
BRANCH  25  28
ATOM     28  O   UNL     1     -11.740  -0.607 -32.636  1.00  0.00    -0.504 OA
ATOM     29  H   UNL     1     -12.363   0.125 -32.785  1.00  0.00     0.293 HD
ENDBRANCH  25  28
BRANCH  27  30
ATOM     30  O   UNL     1     -10.877   1.887 -33.246  1.00  0.00    -0.504 OA
ATOM     31  H   UNL     1     -11.581   1.288 -33.565  1.00  0.00     0.293 HD
ENDBRANCH  27  30
ENDBRANCH  21  22
ENDBRANCH   1  20
TORSDOF 11
ENDMDL
MODEL 3
REMARK VINA RESULT:      -7.8      4.693      7.114
REMARK SMILES O=C(/C=C/c1ccc(O)c(O)c1)O[C@@H]1C[C@](O)(C(=O)O)C[C@@H](O)[C@H]1O
REMARK SMILES IDX 2 1 1 2 13 3 14 4 21 5 22 6 16 7 24 8 15 9 23 10 17 12 18 14
REMARK SMILES IDX 19 15 20 16 25 18 3 20 4 21 5 22 12 23 6 24 10 25 7 26 8 27
REMARK SMILES IDX 11 28 9 30
REMARK H PARENT 23 11 17 13 20 17 25 19 11 29 9 31
ROOT
ATOM      1  C   UNL     1      -7.881  -1.303 -28.254  1.00  0.00     0.331 C 
ATOM      2  O   UNL     1      -7.149  -0.508 -27.680  1.00  0.00    -0.247 OA
ENDROOT
BRANCH   1   3
ATOM      3  O   UNL     1      -7.924  -1.516 -29.590  1.00  0.00    -0.456 OA
BRANCH   3   4
ATOM      4  C   UNL     1      -7.907  -0.332 -30.414  1.00  0.00     0.211 C 
ATOM      5  C   UNL     1      -7.901   0.829 -33.153  1.00  0.00     0.082 C 
ATOM      6  C   UNL     1      -6.622   0.776 -32.317  1.00  0.00     0.150 C 
ATOM      7  C   UNL     1      -9.157   0.856 -32.273  1.00  0.00     0.167 C 
ATOM      8  C   UNL     1      -6.640  -0.367 -31.288  1.00  0.00     0.184 C 
ATOM      9  C   UNL     1      -9.168  -0.309 -31.284  1.00  0.00     0.095 C 
BRANCH   6  10
ATOM     10  O   UNL     1      -6.415   2.016 -31.620  1.00  0.00    -0.390 OA
ATOM     11  H   UNL     1      -6.194   2.707 -32.278  1.00  0.00     0.211 HD
ENDBRANCH   6  10
BRANCH   7  12
ATOM     12  O   UNL     1      -9.169   2.105 -31.547  1.00  0.00    -0.378 OA
ATOM     13  H   UNL     1      -8.443   2.659 -31.906  1.00  0.00     0.212 HD
ENDBRANCH   7  12
BRANCH   7  14
ATOM     14  C   UNL     1     -10.395   0.813 -33.183  1.00  0.00     0.335 C 
ATOM     15  O   UNL     1     -10.706  -0.122 -33.902  1.00  0.00    -0.249 OA
BRANCH  14  16
ATOM     16  O   UNL     1     -11.108   1.965 -33.111  1.00  0.00    -0.479 OA
ATOM     17  H   UNL     1     -10.625   2.682 -33.581  1.00  0.00     0.296 HD
ENDBRANCH  14  16
ENDBRANCH   7  14
BRANCH   8  18
ATOM     18  O   UNL     1      -5.478  -0.253 -30.455  1.00  0.00    -0.387 OA
ATOM     19  H   UNL     1      -5.428  -1.091 -29.950  1.00  0.00     0.211 HD
ENDBRANCH   8  18
ENDBRANCH   3   4
ENDBRANCH   1   3
BRANCH   1  20
ATOM     20  C   UNL     1      -8.873  -2.122 -27.529  1.00  0.00     0.094 C 
ATOM     21  C   UNL     1      -9.493  -3.192 -28.052  1.00  0.00     0.016 C 
BRANCH  21  22
ATOM     22  C   UNL     1     -10.468  -4.001 -27.310  1.00  0.00    -0.021 A 
ATOM     23  C   UNL     1     -10.938  -3.619 -26.042  1.00  0.00     0.058 A 
ATOM     24  C   UNL     1     -10.984  -5.158 -27.914  1.00  0.00     0.012 A 
ATOM     25  C   UNL     1     -11.888  -4.406 -25.397  1.00  0.00     0.157 A 
ATOM     26  C   UNL     1     -11.936  -5.944 -27.258  1.00  0.00     0.051 A 
ATOM     27  C   UNL     1     -12.377  -5.559 -26.001  1.00  0.00     0.157 A 
BRANCH  25  28
ATOM     28  O   UNL     1     -12.378  -4.080 -24.162  1.00  0.00    -0.504 OA
ATOM     29  H   UNL     1     -11.645  -3.738 -23.623  1.00  0.00     0.293 HD
ENDBRANCH  25  28
BRANCH  27  30
ATOM     30  O   UNL     1     -13.309  -6.324 -25.361  1.00  0.00    -0.504 OA
ATOM     31  H   UNL     1     -13.812  -6.752 -26.082  1.00  0.00     0.293 HD
ENDBRANCH  27  30
ENDBRANCH  21  22
ENDBRANCH   1  20
TORSDOF 11
ENDMDL
MODEL 4
REMARK VINA RESULT:      -7.8      5.445      7.240
REMARK SMILES O=C(/C=C/c1ccc(O)c(O)c1)O[C@@H]1C[C@](O)(C(=O)O)C[C@@H](O)[C@H]1O
REMARK SMILES IDX 2 1 1 2 13 3 14 4 21 5 22 6 16 7 24 8 15 9 23 10 17 12 18 14
REMARK SMILES IDX 19 15 20 16 25 18 3 20 4 21 5 22 12 23 6 24 10 25 7 26 8 27
REMARK SMILES IDX 11 28 9 30
REMARK H PARENT 23 11 17 13 20 17 25 19 11 29 9 31
ROOT
ATOM      1  C   UNL     1     -10.144  -4.998 -29.923  1.00  0.00     0.331 C 
ATOM      2  O   UNL     1     -10.834  -5.852 -30.463  1.00  0.00    -0.247 OA
ENDROOT
BRANCH   1   3
ATOM      3  O   UNL     1      -9.764  -4.993 -28.624  1.00  0.00    -0.456 OA
BRANCH   3   4
ATOM      4  C   UNL     1     -10.813  -4.735 -27.666  1.00  0.00     0.211 C 
ATOM      5  C   UNL     1     -11.628  -4.575 -24.810  1.00  0.00     0.082 C 
ATOM      6  C   UNL     1     -12.015  -5.775 -25.674  1.00  0.00     0.150 C 
ATOM      7  C   UNL     1     -11.407  -3.313 -25.653  1.00  0.00     0.167 C 
ATOM      8  C   UNL     1     -11.028  -6.010 -26.830  1.00  0.00     0.184 C 
ATOM      9  C   UNL     1     -10.397  -3.561 -26.772  1.00  0.00     0.095 C 
BRANCH   6  10
ATOM     10  O   UNL     1     -13.332  -5.606 -26.223  1.00  0.00    -0.390 OA
ATOM     11  H   UNL     1     -13.516  -6.360 -26.821  1.00  0.00     0.211 HD
ENDBRANCH   6  10
BRANCH   7  12
ATOM     12  O   UNL     1     -12.677  -2.929 -26.226  1.00  0.00    -0.378 OA
ATOM     13  H   UNL     1     -13.379  -3.382 -25.712  1.00  0.00     0.212 HD
ENDBRANCH   7  12
BRANCH   7  14
ATOM     14  C   UNL     1     -10.931  -2.181 -24.728  1.00  0.00     0.335 C 
ATOM     15  O   UNL     1     -10.031  -1.398 -24.983  1.00  0.00    -0.249 OA
BRANCH  14  16
ATOM     16  O   UNL     1     -11.625  -2.164 -23.562  1.00  0.00    -0.479 OA
ATOM     17  H   UNL     1     -12.467  -2.662 -23.671  1.00  0.00     0.296 HD
ENDBRANCH  14  16
ENDBRANCH   7  14
BRANCH   8  18
ATOM     18  O   UNL     1     -11.544  -7.054 -27.668  1.00  0.00    -0.387 OA
ATOM     19  H   UNL     1     -12.297  -6.658 -28.153  1.00  0.00     0.211 HD
ENDBRANCH   8  18
ENDBRANCH   3   4
ENDBRANCH   1   3
BRANCH   1  20
ATOM     20  C   UNL     1      -9.663  -3.803 -30.647  1.00  0.00     0.094 C 
ATOM     21  C   UNL     1     -10.247  -2.596 -30.579  1.00  0.00     0.016 C 
BRANCH  21  22
ATOM     22  C   UNL     1      -9.745  -1.418 -31.298  1.00  0.00    -0.021 A 
ATOM     23  C   UNL     1     -10.606  -0.408 -31.759  1.00  0.00     0.058 A 
ATOM     24  C   UNL     1      -8.360  -1.274 -31.474  1.00  0.00     0.012 A 
ATOM     25  C   UNL     1     -10.074   0.704 -32.405  1.00  0.00     0.157 A 
ATOM     26  C   UNL     1      -7.835  -0.155 -32.126  1.00  0.00     0.051 A 
ATOM     27  C   UNL     1      -8.700   0.825 -32.588  1.00  0.00     0.157 A 
BRANCH  25  28
ATOM     28  O   UNL     1     -10.867   1.715 -32.875  1.00  0.00    -0.504 OA
ATOM     29  H   UNL     1     -11.501   1.955 -32.179  1.00  0.00     0.293 HD
ENDBRANCH  25  28
BRANCH  27  30
ATOM     30  O   UNL     1      -8.188   1.920 -33.221  1.00  0.00    -0.504 OA
ATOM     31  H   UNL     1      -7.566   1.553 -33.880  1.00  0.00     0.293 HD
ENDBRANCH  27  30
ENDBRANCH  21  22
ENDBRANCH   1  20
TORSDOF 11
ENDMDL
MODEL 5
REMARK VINA RESULT:      -7.7      3.690      4.792
REMARK SMILES O=C(/C=C/c1ccc(O)c(O)c1)O[C@@H]1C[C@](O)(C(=O)O)C[C@@H](O)[C@H]1O
REMARK SMILES IDX 2 1 1 2 13 3 14 4 21 5 22 6 16 7 24 8 15 9 23 10 17 12 18 14
REMARK SMILES IDX 19 15 20 16 25 18 3 20 4 21 5 22 12 23 6 24 10 25 7 26 8 27
REMARK SMILES IDX 11 28 9 30
REMARK H PARENT 23 11 17 13 20 17 25 19 11 29 9 31
ROOT
ATOM      1  C   UNL     1      -7.028  -0.350 -31.532  1.00  0.00     0.331 C 
ATOM      2  O   UNL     1      -7.861   0.368 -32.068  1.00  0.00    -0.247 OA
ENDROOT
BRANCH   1   3
ATOM      3  O   UNL     1      -5.686  -0.179 -31.585  1.00  0.00    -0.456 OA
BRANCH   3   4
ATOM      4  C   UNL     1      -5.034   0.049 -30.318  1.00  0.00     0.211 C 
ATOM      5  C   UNL     1      -2.752   1.264 -28.845  1.00  0.00     0.082 C 
ATOM      6  C   UNL     1      -2.798  -0.238 -29.127  1.00  0.00     0.150 C 
ATOM      7  C   UNL     1      -4.157   1.878 -28.796  1.00  0.00     0.167 C 
ATOM      8  C   UNL     1      -3.627  -0.575 -30.378  1.00  0.00     0.184 C 
ATOM      9  C   UNL     1      -4.949   1.558 -30.063  1.00  0.00     0.095 C 
BRANCH   6  10
ATOM     10  O   UNL     1      -3.346  -0.953 -28.008  1.00  0.00    -0.390 OA
ATOM     11  H   UNL     1      -2.650  -1.035 -27.323  1.00  0.00     0.211 HD
ENDBRANCH   6  10
BRANCH   7  12
ATOM     12  O   UNL     1      -4.845   1.332 -27.647  1.00  0.00    -0.378 OA
ATOM     13  H   UNL     1      -4.290   0.605 -27.292  1.00  0.00     0.212 HD
ENDBRANCH   7  12
BRANCH   7  14
ATOM     14  C   UNL     1      -4.023   3.397 -28.603  1.00  0.00     0.335 C 
ATOM     15  O   UNL     1      -2.998   4.038 -28.765  1.00  0.00    -0.249 OA
BRANCH  14  16
ATOM     16  O   UNL     1      -5.194   3.955 -28.203  1.00  0.00    -0.479 OA
ATOM     17  H   UNL     1      -5.051   4.905 -27.990  1.00  0.00     0.296 HD
ENDBRANCH  14  16
ENDBRANCH   7  14
BRANCH   8  18
ATOM     18  O   UNL     1      -3.739  -2.001 -30.483  1.00  0.00    -0.387 OA
ATOM     19  H   UNL     1      -3.812  -2.332 -29.564  1.00  0.00     0.211 HD
ENDBRANCH   8  18
ENDBRANCH   3   4
ENDBRANCH   1   3
BRANCH   1  20
ATOM     20  C   UNL     1      -7.404  -1.558 -30.770  1.00  0.00     0.094 C 
ATOM     21  C   UNL     1      -8.663  -1.868 -30.423  1.00  0.00     0.016 C 
BRANCH  21  22
ATOM     22  C   UNL     1      -9.017  -3.081 -29.676  1.00  0.00    -0.021 A 
ATOM     23  C   UNL     1      -9.428  -3.032 -28.333  1.00  0.00     0.058 A 
ATOM     24  C   UNL     1      -8.997  -4.315 -30.345  1.00  0.00     0.012 A 
ATOM     25  C   UNL     1      -9.784  -4.210 -27.682  1.00  0.00     0.157 A 
ATOM     26  C   UNL     1      -9.355  -5.493 -29.682  1.00  0.00     0.051 A 
ATOM     27  C   UNL     1      -9.744  -5.428 -28.353  1.00  0.00     0.157 A 
BRANCH  25  28
ATOM     28  O   UNL     1     -10.190  -4.218 -26.376  1.00  0.00    -0.504 OA
ATOM     29  H   UNL     1      -9.432  -3.973 -25.818  1.00  0.00     0.293 HD
ENDBRANCH  25  28
BRANCH  27  30
ATOM     30  O   UNL     1     -10.097  -6.576 -27.705  1.00  0.00    -0.504 OA
ATOM     31  H   UNL     1      -9.271  -7.100 -27.667  1.00  0.00     0.293 HD
ENDBRANCH  27  30
ENDBRANCH  21  22
ENDBRANCH   1  20
TORSDOF 11
ENDMDL
MODEL 6
REMARK VINA RESULT:      -7.7      3.794      4.617
REMARK SMILES O=C(/C=C/c1ccc(O)c(O)c1)O[C@@H]1C[C@](O)(C(=O)O)C[C@@H](O)[C@H]1O
REMARK SMILES IDX 2 1 1 2 13 3 14 4 21 5 22 6 16 7 24 8 15 9 23 10 17 12 18 14
REMARK SMILES IDX 19 15 20 16 25 18 3 20 4 21 5 22 12 23 6 24 10 25 7 26 8 27
REMARK SMILES IDX 11 28 9 30
REMARK H PARENT 23 11 17 13 20 17 25 19 11 29 9 31
ROOT
ATOM      1  C   UNL     1      -7.456  -0.449 -30.726  1.00  0.00     0.331 C 
ATOM      2  O   UNL     1      -7.080  -0.379 -31.888  1.00  0.00    -0.247 OA
ENDROOT
BRANCH   1   3
ATOM      3  O   UNL     1      -7.001   0.308 -29.700  1.00  0.00    -0.456 OA
BRANCH   3   4
ATOM      4  C   UNL     1      -5.854  -0.215 -28.997  1.00  0.00     0.211 C 
ATOM      5  C   UNL     1      -3.754   0.218 -26.935  1.00  0.00     0.082 C 
ATOM      6  C   UNL     1      -3.429   0.324 -28.425  1.00  0.00     0.150 C 
ATOM      7  C   UNL     1      -4.954  -0.703 -26.677  1.00  0.00     0.167 C 
ATOM      8  C   UNL     1      -4.656   0.713 -29.267  1.00  0.00     0.184 C 
ATOM      9  C   UNL     1      -6.170  -0.275 -27.499  1.00  0.00     0.095 C 
BRANCH   6  10
ATOM     10  O   UNL     1      -2.906  -0.917 -28.925  1.00  0.00    -0.390 OA
ATOM     11  H   UNL     1      -2.292  -0.720 -29.662  1.00  0.00     0.211 HD
ENDBRANCH   6  10
BRANCH   7  12
ATOM     12  O   UNL     1      -4.574  -2.048 -27.044  1.00  0.00    -0.378 OA
ATOM     13  H   UNL     1      -4.265  -2.497 -26.228  1.00  0.00     0.212 HD
ENDBRANCH   7  12
BRANCH   7  14
ATOM     14  C   UNL     1      -5.276  -0.682 -25.174  1.00  0.00     0.335 C 
ATOM     15  O   UNL     1      -4.829   0.120 -24.371  1.00  0.00    -0.249 OA
BRANCH  14  16
ATOM     16  O   UNL     1      -6.114  -1.692 -24.829  1.00  0.00    -0.479 OA
ATOM     17  H   UNL     1      -6.519  -1.500 -23.952  1.00  0.00     0.296 HD
ENDBRANCH  14  16
ENDBRANCH   7  14
BRANCH   8  18
ATOM     18  O   UNL     1      -4.299   0.647 -30.655  1.00  0.00    -0.387 OA
ATOM     19  H   UNL     1      -4.257  -0.307 -30.874  1.00  0.00     0.211 HD
ENDBRANCH   8  18
ENDBRANCH   3   4
ENDBRANCH   1   3
BRANCH   1  20
ATOM     20  C   UNL     1      -8.460  -1.438 -30.283  1.00  0.00     0.094 C 
ATOM     21  C   UNL     1      -8.159  -2.663 -29.826  1.00  0.00     0.016 C 
BRANCH  21  22
ATOM     22  C   UNL     1      -9.173  -3.628 -29.379  1.00  0.00    -0.021 A 
ATOM     23  C   UNL     1      -9.843  -4.471 -30.280  1.00  0.00     0.058 A 
ATOM     24  C   UNL     1      -9.433  -3.744 -28.004  1.00  0.00     0.012 A 
ATOM     25  C   UNL     1     -10.770  -5.391 -29.798  1.00  0.00     0.157 A 
ATOM     26  C   UNL     1     -10.368  -4.669 -27.530  1.00  0.00     0.051 A 
ATOM     27  C   UNL     1     -11.030  -5.483 -28.435  1.00  0.00     0.157 A 
BRANCH  25  28
ATOM     28  O   UNL     1     -11.451  -6.235 -30.633  1.00  0.00    -0.504 OA
ATOM     29  H   UNL     1     -10.803  -6.758 -31.134  1.00  0.00     0.293 HD
ENDBRANCH  25  28
BRANCH  27  30
ATOM     30  O   UNL     1     -11.941  -6.389 -27.973  1.00  0.00    -0.504 OA
ATOM     31  H   UNL     1     -11.527  -6.765 -27.170  1.00  0.00     0.293 HD
ENDBRANCH  27  30
ENDBRANCH  21  22
ENDBRANCH   1  20
TORSDOF 11
ENDMDL
MODEL 7
REMARK VINA RESULT:      -7.7      4.649      7.830
REMARK SMILES O=C(/C=C/c1ccc(O)c(O)c1)O[C@@H]1C[C@](O)(C(=O)O)C[C@@H](O)[C@H]1O
REMARK SMILES IDX 2 1 1 2 13 3 14 4 21 5 22 6 16 7 24 8 15 9 23 10 17 12 18 14
REMARK SMILES IDX 19 15 20 16 25 18 3 20 4 21 5 22 12 23 6 24 10 25 7 26 8 27
REMARK SMILES IDX 11 28 9 30
REMARK H PARENT 23 11 17 13 20 17 25 19 11 29 9 31
ROOT
ATOM      1  C   UNL     1      -7.960  -3.200 -29.585  1.00  0.00     0.331 C 
ATOM      2  O   UNL     1      -7.822  -4.145 -30.350  1.00  0.00    -0.247 OA
ENDROOT
BRANCH   1   3
ATOM      3  O   UNL     1      -9.140  -2.709 -29.139  1.00  0.00    -0.456 OA
BRANCH   3   4
ATOM      4  C   UNL     1      -9.535  -3.132 -27.817  1.00  0.00     0.211 C 
ATOM      5  C   UNL     1     -11.689  -3.325 -25.775  1.00  0.00     0.082 C 
ATOM      6  C   UNL     1     -10.590  -2.270 -25.662  1.00  0.00     0.150 C 
ATOM      7  C   UNL     1     -11.222  -4.553 -26.568  1.00  0.00     0.167 C 
ATOM      8  C   UNL     1      -9.997  -1.891 -27.030  1.00  0.00     0.184 C 
ATOM      9  C   UNL     1     -10.669  -4.155 -27.935  1.00  0.00     0.095 C 
BRANCH   6  10
ATOM     10  O   UNL     1      -9.526  -2.728 -24.813  1.00  0.00    -0.390 OA
ATOM     11  H   UNL     1      -8.825  -2.044 -24.799  1.00  0.00     0.211 HD
ENDBRANCH   6  10
BRANCH   7  12
ATOM     12  O   UNL     1     -10.188  -5.213 -25.804  1.00  0.00    -0.378 OA
ATOM     13  H   UNL     1      -9.694  -4.518 -25.319  1.00  0.00     0.212 HD
ENDBRANCH   7  12
BRANCH   7  14
ATOM     14  C   UNL     1     -12.406  -5.522 -26.718  1.00  0.00     0.335 C 
ATOM     15  O   UNL     1     -13.475  -5.420 -26.137  1.00  0.00    -0.249 OA
BRANCH  14  16
ATOM     16  O   UNL     1     -12.117  -6.537 -27.570  1.00  0.00    -0.479 OA
ATOM     17  H   UNL     1     -12.887  -7.147 -27.631  1.00  0.00     0.296 HD
ENDBRANCH  14  16
ENDBRANCH   7  14
BRANCH   8  18
ATOM     18  O   UNL     1      -8.882  -1.013 -26.819  1.00  0.00    -0.387 OA
ATOM     19  H   UNL     1      -8.099  -1.488 -27.166  1.00  0.00     0.211 HD
ENDBRANCH   8  18
ENDBRANCH   3   4
ENDBRANCH   1   3
BRANCH   1  20
ATOM     20  C   UNL     1      -6.809  -2.429 -29.072  1.00  0.00     0.094 C 
ATOM     21  C   UNL     1      -5.741  -2.089 -29.811  1.00  0.00     0.016 C 
BRANCH  21  22
ATOM     22  C   UNL     1      -4.612  -1.311 -29.285  1.00  0.00    -0.021 A 
ATOM     23  C   UNL     1      -3.545  -0.906 -30.103  1.00  0.00     0.058 A 
ATOM     24  C   UNL     1      -4.635  -0.916 -27.938  1.00  0.00     0.012 A 
ATOM     25  C   UNL     1      -2.517  -0.141 -29.560  1.00  0.00     0.157 A 
ATOM     26  C   UNL     1      -3.596  -0.150 -27.401  1.00  0.00     0.051 A 
ATOM     27  C   UNL     1      -2.544   0.229 -28.220  1.00  0.00     0.157 A 
BRANCH  25  28
ATOM     28  O   UNL     1      -1.453   0.278 -30.312  1.00  0.00    -0.504 OA
ATOM     29  H   UNL     1      -1.177   1.153 -29.990  1.00  0.00     0.293 HD
ENDBRANCH  25  28
BRANCH  27  30
ATOM     30  O   UNL     1      -1.531   0.980 -27.697  1.00  0.00    -0.504 OA
ATOM     31  H   UNL     1      -1.017   1.274 -28.476  1.00  0.00     0.293 HD
ENDBRANCH  27  30
ENDBRANCH  21  22
ENDBRANCH   1  20
TORSDOF 11
ENDMDL
MODEL 8
REMARK VINA RESULT:      -7.7      4.766      8.124
REMARK SMILES O=C(/C=C/c1ccc(O)c(O)c1)O[C@@H]1C[C@](O)(C(=O)O)C[C@@H](O)[C@H]1O
REMARK SMILES IDX 2 1 1 2 13 3 14 4 21 5 22 6 16 7 24 8 15 9 23 10 17 12 18 14
REMARK SMILES IDX 19 15 20 16 25 18 3 20 4 21 5 22 12 23 6 24 10 25 7 26 8 27
REMARK SMILES IDX 11 28 9 30
REMARK H PARENT 23 11 17 13 20 17 25 19 11 29 9 31
ROOT
ATOM      1  C   UNL     1      -7.887  -1.122 -25.644  1.00  0.00     0.331 C 
ATOM      2  O   UNL     1      -7.735  -1.303 -24.443  1.00  0.00    -0.247 OA
ENDROOT
BRANCH   1   3
ATOM      3  O   UNL     1      -9.030  -1.331 -26.337  1.00  0.00    -0.456 OA
BRANCH   3   4
ATOM      4  C   UNL     1      -9.832  -2.449 -25.899  1.00  0.00     0.211 C 
ATOM      5  C   UNL     1     -12.347  -4.009 -26.194  1.00  0.00     0.082 C 
ATOM      6  C   UNL     1     -12.154  -3.039 -25.029  1.00  0.00     0.150 C 
ATOM      7  C   UNL     1     -11.009  -4.538 -26.724  1.00  0.00     0.167 C 
ATOM      8  C   UNL     1     -11.170  -1.905 -25.365  1.00  0.00     0.184 C 
ATOM      9  C   UNL     1     -10.062  -3.394 -27.084  1.00  0.00     0.095 C 
BRANCH   6  10
ATOM     10  O   UNL     1     -11.676  -3.728 -23.862  1.00  0.00    -0.390 OA
ATOM     11  H   UNL     1     -10.962  -3.193 -23.458  1.00  0.00     0.211 HD
ENDBRANCH   6  10
BRANCH   7  12
ATOM     12  O   UNL     1     -10.409  -5.353 -25.692  1.00  0.00    -0.378 OA
ATOM     13  H   UNL     1      -9.808  -5.991 -26.135  1.00  0.00     0.212 HD
ENDBRANCH   7  12
BRANCH   7  14
ATOM     14  C   UNL     1     -11.281  -5.428 -27.947  1.00  0.00     0.335 C 
ATOM     15  O   UNL     1     -10.825  -5.246 -29.063  1.00  0.00    -0.249 OA
BRANCH  14  16
ATOM     16  O   UNL     1     -12.123  -6.449 -27.645  1.00  0.00    -0.479 OA
ATOM     17  H   UNL     1     -12.866  -6.112 -27.094  1.00  0.00     0.296 HD
ENDBRANCH  14  16
ENDBRANCH   7  14
BRANCH   8  18
ATOM     18  O   UNL     1     -10.937  -1.133 -24.179  1.00  0.00    -0.387 OA
ATOM     19  H   UNL     1     -10.372  -0.382 -24.457  1.00  0.00     0.211 HD
ENDBRANCH   8  18
ENDBRANCH   3   4
ENDBRANCH   1   3
BRANCH   1  20
ATOM     20  C   UNL     1      -6.781  -0.678 -26.517  1.00  0.00     0.094 C 
ATOM     21  C   UNL     1      -5.662  -1.386 -26.734  1.00  0.00     0.016 C 
BRANCH  21  22
ATOM     22  C   UNL     1      -4.579  -0.932 -27.617  1.00  0.00    -0.021 A 
ATOM     23  C   UNL     1      -3.587  -0.041 -27.175  1.00  0.00     0.058 A 
ATOM     24  C   UNL     1      -4.508  -1.452 -28.919  1.00  0.00     0.012 A 
ATOM     25  C   UNL     1      -2.564   0.330 -28.044  1.00  0.00     0.157 A 
ATOM     26  C   UNL     1      -3.479  -1.071 -29.784  1.00  0.00     0.051 A 
ATOM     27  C   UNL     1      -2.516  -0.180 -29.337  1.00  0.00     0.157 A 
BRANCH  25  28
ATOM     28  O   UNL     1      -1.574   1.195 -27.666  1.00  0.00    -0.504 OA
ATOM     29  H   UNL     1      -1.917   1.759 -26.952  1.00  0.00     0.293 HD
ENDBRANCH  25  28
BRANCH  27  30
ATOM     30  O   UNL     1      -1.508   0.190 -30.180  1.00  0.00    -0.504 OA
ATOM     31  H   UNL     1      -0.821  -0.495 -30.057  1.00  0.00     0.293 HD
ENDBRANCH  27  30
ENDBRANCH  21  22
ENDBRANCH   1  20
TORSDOF 11
ENDMDL
MODEL 9
REMARK VINA RESULT:      -7.6      4.616      6.331
REMARK SMILES O=C(/C=C/c1ccc(O)c(O)c1)O[C@@H]1C[C@](O)(C(=O)O)C[C@@H](O)[C@H]1O
REMARK SMILES IDX 2 1 1 2 13 3 14 4 21 5 22 6 16 7 24 8 15 9 23 10 17 12 18 14
REMARK SMILES IDX 19 15 20 16 25 18 3 20 4 21 5 22 12 23 6 24 10 25 7 26 8 27
REMARK SMILES IDX 11 28 9 30
REMARK H PARENT 23 11 17 13 20 17 25 19 11 29 9 31
ROOT
ATOM      1  C   UNL     1      -7.972  -2.418 -29.577  1.00  0.00     0.331 C 
ATOM      2  O   UNL     1      -8.275  -2.053 -30.705  1.00  0.00    -0.247 OA
ENDROOT
BRANCH   1   3
ATOM      3  O   UNL     1      -6.718  -2.685 -29.143  1.00  0.00    -0.456 OA
BRANCH   3   4
ATOM      4  C   UNL     1      -5.902  -1.533 -28.843  1.00  0.00     0.211 C 
ATOM      5  C   UNL     1      -3.209  -0.464 -28.169  1.00  0.00     0.082 C 
ATOM      6  C   UNL     1      -4.288  -0.611 -27.098  1.00  0.00     0.150 C 
ATOM      7  C   UNL     1      -3.813  -0.291 -29.569  1.00  0.00     0.167 C 
ATOM      8  C   UNL     1      -5.304  -1.716 -27.436  1.00  0.00     0.184 C 
ATOM      9  C   UNL     1      -4.792  -1.418 -29.894  1.00  0.00     0.095 C 
BRANCH   6  10
ATOM     10  O   UNL     1      -4.999   0.624 -26.914  1.00  0.00    -0.390 OA
ATOM     11  H   UNL     1      -5.118   0.772 -25.953  1.00  0.00     0.211 HD
ENDBRANCH   6  10
BRANCH   7  12
ATOM     12  O   UNL     1      -4.508   0.976 -29.603  1.00  0.00    -0.378 OA
ATOM     13  H   UNL     1      -3.834   1.682 -29.511  1.00  0.00     0.212 HD
ENDBRANCH   7  12
BRANCH   7  14
ATOM     14  C   UNL     1      -2.671  -0.244 -30.596  1.00  0.00     0.335 C 
ATOM     15  O   UNL     1      -1.528   0.109 -30.359  1.00  0.00    -0.249 OA
BRANCH  14  16
ATOM     16  O   UNL     1      -3.091  -0.630 -31.827  1.00  0.00    -0.479 OA
ATOM     17  H   UNL     1      -3.195   0.162 -32.403  1.00  0.00     0.296 HD
ENDBRANCH  14  16
ENDBRANCH   7  14
BRANCH   8  18
ATOM     18  O   UNL     1      -6.356  -1.686 -26.460  1.00  0.00    -0.387 OA
ATOM     19  H   UNL     1      -5.979  -1.237 -25.675  1.00  0.00     0.211 HD
ENDBRANCH   8  18
ENDBRANCH   3   4
ENDBRANCH   1   3
BRANCH   1  20
ATOM     20  C   UNL     1      -8.985  -2.662 -28.531  1.00  0.00     0.094 C 
ATOM     21  C   UNL     1      -9.615  -3.834 -28.349  1.00  0.00     0.016 C 
BRANCH  21  22
ATOM     22  C   UNL     1     -10.611  -4.059 -27.294  1.00  0.00    -0.021 A 
ATOM     23  C   UNL     1     -10.881  -3.093 -26.310  1.00  0.00     0.058 A 
ATOM     24  C   UNL     1     -11.352  -5.251 -27.309  1.00  0.00     0.012 A 
ATOM     25  C   UNL     1     -11.859  -3.344 -25.354  1.00  0.00     0.157 A 
ATOM     26  C   UNL     1     -12.331  -5.495 -26.342  1.00  0.00     0.051 A 
ATOM     27  C   UNL     1     -12.574  -4.538 -25.370  1.00  0.00     0.157 A 
BRANCH  25  28
ATOM     28  O   UNL     1     -12.161  -2.439 -24.373  1.00  0.00    -0.504 OA
ATOM     29  H   UNL     1     -11.431  -2.429 -23.731  1.00  0.00     0.293 HD
ENDBRANCH  25  28
BRANCH  27  30
ATOM     30  O   UNL     1     -13.532  -4.774 -24.428  1.00  0.00    -0.504 OA
ATOM     31  H   UNL     1     -13.482  -5.737 -24.262  1.00  0.00     0.293 HD
ENDBRANCH  27  30
ENDBRANCH  21  22
ENDBRANCH   1  20
TORSDOF 11
ENDMDL
MODEL 10
REMARK VINA RESULT:      -7.6      3.775      6.832
REMARK SMILES O=C(/C=C/c1ccc(O)c(O)c1)O[C@@H]1C[C@](O)(C(=O)O)C[C@@H](O)[C@H]1O
REMARK SMILES IDX 2 1 1 2 13 3 14 4 21 5 22 6 16 7 24 8 15 9 23 10 17 12 18 14
REMARK SMILES IDX 19 15 20 16 25 18 3 20 4 21 5 22 12 23 6 24 10 25 7 26 8 27
REMARK SMILES IDX 11 28 9 30
REMARK H PARENT 23 11 17 13 20 17 25 19 11 29 9 31
ROOT
ATOM      1  C   UNL     1      -8.451  -0.775 -31.238  1.00  0.00     0.331 C 
ATOM      2  O   UNL     1      -8.433  -0.890 -32.456  1.00  0.00    -0.247 OA
ENDROOT
BRANCH   1   3
ATOM      3  O   UNL     1      -9.524  -0.983 -30.440  1.00  0.00    -0.456 OA
BRANCH   3   4
ATOM      4  C   UNL     1      -9.315  -1.883 -29.332  1.00  0.00     0.211 C 
ATOM      5  C   UNL     1     -10.496  -3.805 -27.393  1.00  0.00     0.082 C 
ATOM      6  C   UNL     1     -10.127  -2.385 -26.968  1.00  0.00     0.150 C 
ATOM      7  C   UNL     1      -9.653  -4.282 -28.583  1.00  0.00     0.167 C 
ATOM      8  C   UNL     1     -10.161  -1.392 -28.143  1.00  0.00     0.184 C 
ATOM      9  C   UNL     1      -9.731  -3.298 -29.749  1.00  0.00     0.095 C 
BRANCH   6  10
ATOM     10  O   UNL     1      -8.817  -2.350 -26.378  1.00  0.00    -0.390 OA
ATOM     11  H   UNL     1      -8.186  -2.765 -27.002  1.00  0.00     0.211 HD
ENDBRANCH   6  10
BRANCH   7  12
ATOM     12  O   UNL     1      -8.281  -4.399 -28.142  1.00  0.00    -0.378 OA
ATOM     13  H   UNL     1      -8.183  -5.282 -27.726  1.00  0.00     0.212 HD
ENDBRANCH   7  12
BRANCH   7  14
ATOM     14  C   UNL     1     -10.146  -5.674 -29.009  1.00  0.00     0.335 C 
ATOM     15  O   UNL     1     -10.714  -5.928 -30.058  1.00  0.00    -0.249 OA
BRANCH  14  16
ATOM     16  O   UNL     1      -9.892  -6.607 -28.056  1.00  0.00    -0.479 OA
ATOM     17  H   UNL     1      -9.596  -6.162 -27.229  1.00  0.00     0.296 HD
ENDBRANCH  14  16
ENDBRANCH   7  14
BRANCH   8  18
ATOM     18  O   UNL     1      -9.664  -0.126 -27.688  1.00  0.00    -0.387 OA
ATOM     19  H   UNL     1     -10.321   0.202 -27.040  1.00  0.00     0.211 HD
ENDBRANCH   8  18
ENDBRANCH   3   4
ENDBRANCH   1   3
BRANCH   1  20
ATOM     20  C   UNL     1      -7.266  -0.337 -30.473  1.00  0.00     0.094 C 
ATOM     21  C   UNL     1      -6.005  -0.688 -30.770  1.00  0.00     0.016 C 
BRANCH  21  22
ATOM     22  C   UNL     1      -4.839  -0.232 -30.003  1.00  0.00    -0.021 A 
ATOM     23  C   UNL     1      -4.782   1.050 -29.432  1.00  0.00     0.058 A 
ATOM     24  C   UNL     1      -3.780  -1.127 -29.790  1.00  0.00     0.012 A 
ATOM     25  C   UNL     1      -3.667   1.419 -28.685  1.00  0.00     0.157 A 
ATOM     26  C   UNL     1      -2.662  -0.747 -29.040  1.00  0.00     0.051 A 
ATOM     27  C   UNL     1      -2.617   0.527 -28.496  1.00  0.00     0.157 A 
BRANCH  25  28
ATOM     28  O   UNL     1      -3.560   2.655 -28.108  1.00  0.00    -0.504 OA
ATOM     29  H   UNL     1      -3.666   3.327 -28.803  1.00  0.00     0.293 HD
ENDBRANCH  25  28
BRANCH  27  30
ATOM     30  O   UNL     1      -1.528   0.898 -27.761  1.00  0.00    -0.504 OA
ATOM     31  H   UNL     1      -1.366   1.829 -28.017  1.00  0.00     0.293 HD
ENDBRANCH  27  30
ENDBRANCH  21  22
ENDBRANCH   1  20
TORSDOF 11
ENDMDL
