MODEL 1
REMARK VINA RESULT:      -8.1      0.000      0.000
REMARK SMILES O=C(/C=C/c1ccc(O)c(O)c1)O[C@H](Cc1ccc(O)c(O)c1)C(=O)O
REMARK SMILES IDX 13 1 14 2 15 3 16 4 17 5 18 6 19 7 23 8 21 9 20 10 22 12
REMARK SMILES IDX 24 14 25 15 26 16 2 18 1 19 3 20 4 21 5 22 12 23 6 24 10 25
REMARK SMILES IDX 7 26 8 27 11 28 9 30
REMARK H PARENT 20 11 22 13 26 17 11 29 9 31
ROOT
ATOM      1  O   UNL     1      -8.303  -0.212 -32.225  1.00  0.00    -0.447 OA
ENDROOT
BRANCH   1   2
ATOM      2  C   UNL     1      -9.425   0.403 -31.569  1.00  0.00     0.290 C 
BRANCH   2   3
ATOM      3  C   UNL     1      -9.865  -0.510 -30.411  1.00  0.00     0.093 C 
BRANCH   3   4
ATOM      4  C   UNL     1      -8.707  -0.974 -29.553  1.00  0.00    -0.040 A 
ATOM      5  C   UNL     1      -8.201  -2.279 -29.691  1.00  0.00     0.008 A 
ATOM      6  C   UNL     1      -7.124  -2.717 -28.914  1.00  0.00     0.050 A 
ATOM      7  C   UNL     1      -6.550  -1.845 -27.998  1.00  0.00     0.157 A 
ATOM      8  C   UNL     1      -8.125  -0.114 -28.610  1.00  0.00     0.054 A 
ATOM      9  C   UNL     1      -7.050  -0.554 -27.851  1.00  0.00     0.157 A 
BRANCH   7  10
ATOM     10  O   UNL     1      -5.490  -2.210 -27.215  1.00  0.00    -0.504 OA
ATOM     11  H   UNL     1      -5.581  -1.763 -26.356  1.00  0.00     0.293 HD
ENDBRANCH   7  10
BRANCH   9  12
ATOM     12  O   UNL     1      -6.479   0.299 -26.951  1.00  0.00    -0.504 OA
ATOM     13  H   UNL     1      -7.224   0.601 -26.394  1.00  0.00     0.293 HD
ENDBRANCH   9  12
ENDBRANCH   3   4
ENDBRANCH   2   3
BRANCH   2  14
ATOM     14  C   UNL     1     -10.603   0.618 -32.531  1.00  0.00     0.345 C 
ATOM     15  O   UNL     1     -11.326  -0.273 -32.953  1.00  0.00    -0.248 OA
BRANCH  14  16
ATOM     16  O   UNL     1     -10.796   1.912 -32.884  1.00  0.00    -0.478 OA
ATOM     17  H   UNL     1     -11.596   2.327 -32.478  1.00  0.00     0.296 HD
ENDBRANCH  14  16
ENDBRANCH   2  14
ENDBRANCH   1   2
BRANCH   1  18
ATOM     18  C   UNL     1      -7.459   0.646 -32.841  1.00  0.00     0.331 C 
ATOM     19  O   UNL     1      -7.553   1.004 -34.005  1.00  0.00    -0.247 OA
BRANCH  18  20
ATOM     20  C   UNL     1      -6.391   1.023 -31.901  1.00  0.00     0.094 C 
ATOM     21  C   UNL     1      -5.644   0.070 -31.323  1.00  0.00     0.016 C 
BRANCH  21  22
ATOM     22  C   UNL     1      -4.575   0.358 -30.359  1.00  0.00    -0.021 A 
ATOM     23  C   UNL     1      -4.530   1.568 -29.648  1.00  0.00     0.058 A 
ATOM     24  C   UNL     1      -3.613  -0.631 -30.096  1.00  0.00     0.012 A 
ATOM     25  C   UNL     1      -3.522   1.778 -28.712  1.00  0.00     0.157 A 
ATOM     26  C   UNL     1      -2.602  -0.410 -29.158  1.00  0.00     0.051 A 
ATOM     27  C   UNL     1      -2.565   0.795 -28.474  1.00  0.00     0.157 A 
BRANCH  25  28
ATOM     28  O   UNL     1      -3.433   2.936 -27.991  1.00  0.00    -0.504 OA
ATOM     29  H   UNL     1      -2.781   3.516 -28.421  1.00  0.00     0.293 HD
ENDBRANCH  25  28
BRANCH  27  30
ATOM     30  O   UNL     1      -1.582   1.008 -27.552  1.00  0.00    -0.504 OA
ATOM     31  H   UNL     1      -2.029   0.898 -26.688  1.00  0.00     0.293 HD
ENDBRANCH  27  30
ENDBRANCH  21  22
ENDBRANCH  18  20
ENDBRANCH   1  18
TORSDOF 12
ENDMDL
MODEL 2
REMARK VINA RESULT:      -7.8      2.792      6.967
REMARK SMILES O=C(/C=C/c1ccc(O)c(O)c1)O[C@H](Cc1ccc(O)c(O)c1)C(=O)O
REMARK SMILES IDX 13 1 14 2 15 3 16 4 17 5 18 6 19 7 23 8 21 9 20 10 22 12
REMARK SMILES IDX 24 14 25 15 26 16 2 18 1 19 3 20 4 21 5 22 12 23 6 24 10 25
REMARK SMILES IDX 7 26 8 27 11 28 9 30
REMARK H PARENT 20 11 22 13 26 17 11 29 9 31
ROOT
ATOM      1  O   UNL     1      -5.762  -1.064 -30.820  1.00  0.00    -0.447 OA
ENDROOT
BRANCH   1   2
ATOM      2  C   UNL     1      -5.885   0.345 -30.558  1.00  0.00     0.290 C 
BRANCH   2   3
ATOM      3  C   UNL     1      -6.421   1.025 -31.829  1.00  0.00     0.093 C 
BRANCH   3   4
ATOM      4  C   UNL     1      -7.852   0.643 -32.145  1.00  0.00    -0.040 A 
ATOM      5  C   UNL     1      -8.234   0.358 -33.467  1.00  0.00     0.008 A 
ATOM      6  C   UNL     1      -9.549  -0.009 -33.772  1.00  0.00     0.050 A 
ATOM      7  C   UNL     1     -10.483  -0.094 -32.748  1.00  0.00     0.157 A 
ATOM      8  C   UNL     1      -8.814   0.568 -31.127  1.00  0.00     0.054 A 
ATOM      9  C   UNL     1     -10.114   0.193 -31.437  1.00  0.00     0.157 A 
BRANCH   7  10
ATOM     10  O   UNL     1     -11.781  -0.455 -32.979  1.00  0.00    -0.504 OA
ATOM     11  H   UNL     1     -12.234  -0.520 -32.120  1.00  0.00     0.293 HD
ENDBRANCH   7  10
BRANCH   9  12
ATOM     12  O   UNL     1     -11.036   0.104 -30.434  1.00  0.00    -0.504 OA
ATOM     13  H   UNL     1     -10.505   0.053 -29.616  1.00  0.00     0.293 HD
ENDBRANCH   9  12
ENDBRANCH   3   4
ENDBRANCH   2   3
BRANCH   2  14
ATOM     14  C   UNL     1      -4.541   0.974 -30.164  1.00  0.00     0.345 C 
ATOM     15  O   UNL     1      -4.343   1.602 -29.134  1.00  0.00    -0.248 OA
BRANCH  14  16
ATOM     16  O   UNL     1      -3.551   0.768 -31.067  1.00  0.00    -0.478 OA
ATOM     17  H   UNL     1      -2.639   0.864 -30.697  1.00  0.00     0.296 HD
ENDBRANCH  14  16
ENDBRANCH   2  14
ENDBRANCH   1   2
BRANCH   1  18
ATOM     18  C   UNL     1      -5.341  -1.807 -29.772  1.00  0.00     0.331 C 
ATOM     19  O   UNL     1      -4.181  -1.895 -29.399  1.00  0.00    -0.247 OA
BRANCH  18  20
ATOM     20  C   UNL     1      -6.492  -2.527 -29.204  1.00  0.00     0.094 C 
ATOM     21  C   UNL     1      -7.455  -2.990 -30.015  1.00  0.00     0.016 C 
BRANCH  21  22
ATOM     22  C   UNL     1      -8.646  -3.698 -29.530  1.00  0.00    -0.021 A 
ATOM     23  C   UNL     1      -9.425  -4.500 -30.381  1.00  0.00     0.058 A 
ATOM     24  C   UNL     1      -8.974  -3.622 -28.166  1.00  0.00     0.012 A 
ATOM     25  C   UNL     1     -10.519  -5.187 -29.866  1.00  0.00     0.157 A 
ATOM     26  C   UNL     1     -10.078  -4.312 -27.659  1.00  0.00     0.051 A 
ATOM     27  C   UNL     1     -10.842  -5.088 -28.516  1.00  0.00     0.157 A 
BRANCH  25  28
ATOM     28  O   UNL     1     -11.308  -5.982 -30.650  1.00  0.00    -0.504 OA
ATOM     29  H   UNL     1     -12.130  -5.500 -30.846  1.00  0.00     0.293 HD
ENDBRANCH  25  28
BRANCH  27  30
ATOM     30  O   UNL     1     -11.916  -5.769 -28.019  1.00  0.00    -0.504 OA
ATOM     31  H   UNL     1     -11.629  -6.704 -28.007  1.00  0.00     0.293 HD
ENDBRANCH  27  30
ENDBRANCH  21  22
ENDBRANCH  18  20
ENDBRANCH   1  18
TORSDOF 12
ENDMDL
MODEL 3
REMARK VINA RESULT:      -7.7      1.712      6.150
REMARK SMILES O=C(/C=C/c1ccc(O)c(O)c1)O[C@H](Cc1ccc(O)c(O)c1)C(=O)O
REMARK SMILES IDX 13 1 14 2 15 3 16 4 17 5 18 6 19 7 23 8 21 9 20 10 22 12
REMARK SMILES IDX 24 14 25 15 26 16 2 18 1 19 3 20 4 21 5 22 12 23 6 24 10 25
REMARK SMILES IDX 7 26 8 27 11 28 9 30
REMARK H PARENT 20 11 22 13 26 17 11 29 9 31
ROOT
ATOM      1  O   UNL     1      -4.347   1.518 -28.423  1.00  0.00    -0.447 OA
ENDROOT
BRANCH   1   2
ATOM      2  C   UNL     1      -3.669   0.344 -28.903  1.00  0.00     0.290 C 
BRANCH   2   3
ATOM      3  C   UNL     1      -4.101  -0.850 -28.035  1.00  0.00     0.093 C 
BRANCH   3   4
ATOM      4  C   UNL     1      -5.476  -1.374 -28.393  1.00  0.00    -0.040 A 
ATOM      5  C   UNL     1      -5.747  -1.817 -29.699  1.00  0.00     0.008 A 
ATOM      6  C   UNL     1      -7.009  -2.316 -30.041  1.00  0.00     0.050 A 
ATOM      7  C   UNL     1      -8.001  -2.373 -29.070  1.00  0.00     0.157 A 
ATOM      8  C   UNL     1      -6.496  -1.424 -27.431  1.00  0.00     0.054 A 
ATOM      9  C   UNL     1      -7.742  -1.929 -27.776  1.00  0.00     0.157 A 
BRANCH   7  10
ATOM     10  O   UNL     1      -9.251  -2.857 -29.339  1.00  0.00    -0.504 OA
ATOM     11  H   UNL     1      -9.250  -3.813 -29.158  1.00  0.00     0.293 HD
ENDBRANCH   7  10
BRANCH   9  12
ATOM     12  O   UNL     1      -8.720  -1.991 -26.826  1.00  0.00    -0.504 OA
ATOM     13  H   UNL     1      -9.548  -2.104 -27.334  1.00  0.00     0.293 HD
ENDBRANCH   9  12
ENDBRANCH   3   4
ENDBRANCH   2   3
BRANCH   2  14
ATOM     14  C   UNL     1      -2.143   0.499 -28.843  1.00  0.00     0.345 C 
ATOM     15  O   UNL     1      -1.382   0.244 -29.766  1.00  0.00    -0.248 OA
BRANCH  14  16
ATOM     16  O   UNL     1      -1.683   0.965 -27.657  1.00  0.00    -0.478 OA
ATOM     17  H   UNL     1      -2.390   1.133 -26.987  1.00  0.00     0.296 HD
ENDBRANCH  14  16
ENDBRANCH   2  14
ENDBRANCH   1   2
BRANCH   1  18
ATOM     18  C   UNL     1      -4.776   2.365 -29.385  1.00  0.00     0.331 C 
ATOM     19  O   UNL     1      -4.191   3.378 -29.736  1.00  0.00    -0.247 OA
BRANCH  18  20
ATOM     20  C   UNL     1      -6.079   1.897 -29.887  1.00  0.00     0.094 C 
ATOM     21  C   UNL     1      -6.219   1.575 -31.181  1.00  0.00     0.016 C 
BRANCH  21  22
ATOM     22  C   UNL     1      -7.486   1.122 -31.767  1.00  0.00    -0.021 A 
ATOM     23  C   UNL     1      -8.634   0.927 -30.981  1.00  0.00     0.058 A 
ATOM     24  C   UNL     1      -7.566   0.943 -33.157  1.00  0.00     0.012 A 
ATOM     25  C   UNL     1      -9.824   0.539 -31.587  1.00  0.00     0.157 A 
ATOM     26  C   UNL     1      -8.765   0.549 -33.757  1.00  0.00     0.051 A 
ATOM     27  C   UNL     1      -9.885   0.350 -32.965  1.00  0.00     0.157 A 
BRANCH  25  28
ATOM     28  O   UNL     1     -10.970   0.339 -30.869  1.00  0.00    -0.504 OA
ATOM     29  H   UNL     1     -11.193  -0.607 -30.904  1.00  0.00     0.293 HD
ENDBRANCH  25  28
BRANCH  27  30
ATOM     30  O   UNL     1     -11.058  -0.027 -33.551  1.00  0.00    -0.504 OA
ATOM     31  H   UNL     1     -11.637   0.756 -33.467  1.00  0.00     0.293 HD
ENDBRANCH  27  30
ENDBRANCH  21  22
ENDBRANCH  18  20
ENDBRANCH   1  18
TORSDOF 12
ENDMDL
MODEL 4
REMARK VINA RESULT:      -7.6      1.953      3.608
REMARK SMILES O=C(/C=C/c1ccc(O)c(O)c1)O[C@H](Cc1ccc(O)c(O)c1)C(=O)O
REMARK SMILES IDX 13 1 14 2 15 3 16 4 17 5 18 6 19 7 23 8 21 9 20 10 22 12
REMARK SMILES IDX 24 14 25 15 26 16 2 18 1 19 3 20 4 21 5 22 12 23 6 24 10 25
REMARK SMILES IDX 7 26 8 27 11 28 9 30
REMARK H PARENT 20 11 22 13 26 17 11 29 9 31
ROOT
ATOM      1  O   UNL     1      -9.012  -1.318 -30.717  1.00  0.00    -0.447 OA
ENDROOT
BRANCH   1   2
ATOM      2  C   UNL     1      -8.712  -0.281 -31.666  1.00  0.00     0.290 C 
BRANCH   2   3
ATOM      3  C   UNL     1      -8.785   1.073 -30.939  1.00  0.00     0.093 C 
BRANCH   3   4
ATOM      4  C   UNL     1      -7.422   1.684 -30.690  1.00  0.00    -0.040 A 
ATOM      5  C   UNL     1      -7.175   2.412 -29.514  1.00  0.00     0.008 A 
ATOM      6  C   UNL     1      -5.917   2.972 -29.266  1.00  0.00     0.050 A 
ATOM      7  C   UNL     1      -4.903   2.798 -30.197  1.00  0.00     0.157 A 
ATOM      8  C   UNL     1      -6.389   1.535 -31.628  1.00  0.00     0.054 A 
ATOM      9  C   UNL     1      -5.141   2.084 -31.368  1.00  0.00     0.157 A 
BRANCH   7  10
ATOM     10  O   UNL     1      -3.650   3.312 -30.010  1.00  0.00    -0.504 OA
ATOM     11  H   UNL     1      -3.742   4.244 -29.745  1.00  0.00     0.293 HD
ENDBRANCH   7  10
BRANCH   9  12
ATOM     12  O   UNL     1      -4.139   1.915 -32.279  1.00  0.00    -0.504 OA
ATOM     13  H   UNL     1      -3.806   2.818 -32.449  1.00  0.00     0.293 HD
ENDBRANCH   9  12
ENDBRANCH   3   4
ENDBRANCH   2   3
BRANCH   2  14
ATOM     14  C   UNL     1      -9.693  -0.284 -32.848  1.00  0.00     0.345 C 
ATOM     15  O   UNL     1      -9.439  -0.727 -33.959  1.00  0.00    -0.248 OA
BRANCH  14  16
ATOM     16  O   UNL     1     -10.905   0.248 -32.559  1.00  0.00    -0.478 OA
ATOM     17  H   UNL     1     -10.939   1.234 -32.620  1.00  0.00     0.296 HD
ENDBRANCH  14  16
ENDBRANCH   2  14
ENDBRANCH   1   2
BRANCH   1  18
ATOM     18  C   UNL     1      -8.074  -2.286 -30.611  1.00  0.00     0.331 C 
ATOM     19  O   UNL     1      -8.298  -3.486 -30.669  1.00  0.00    -0.247 OA
BRANCH  18  20
ATOM     20  C   UNL     1      -6.767  -1.659 -30.357  1.00  0.00     0.094 C 
ATOM     21  C   UNL     1      -6.318  -1.538 -29.099  1.00  0.00     0.016 C 
BRANCH  21  22
ATOM     22  C   UNL     1      -5.038  -0.906 -28.757  1.00  0.00    -0.021 A 
ATOM     23  C   UNL     1      -4.027  -0.724 -29.715  1.00  0.00     0.058 A 
ATOM     24  C   UNL     1      -4.850  -0.413 -27.456  1.00  0.00     0.012 A 
ATOM     25  C   UNL     1      -2.847  -0.080 -29.355  1.00  0.00     0.157 A 
ATOM     26  C   UNL     1      -3.660   0.228 -27.102  1.00  0.00     0.051 A 
ATOM     27  C   UNL     1      -2.668   0.388 -28.056  1.00  0.00     0.157 A 
BRANCH  25  28
ATOM     28  O   UNL     1      -1.833   0.125 -30.248  1.00  0.00    -0.504 OA
ATOM     29  H   UNL     1      -1.261  -0.662 -30.248  1.00  0.00     0.293 HD
ENDBRANCH  25  28
BRANCH  27  30
ATOM     30  O   UNL     1      -1.509   1.021 -27.713  1.00  0.00    -0.504 OA
ATOM     31  H   UNL     1      -0.923   0.305 -27.395  1.00  0.00     0.293 HD
ENDBRANCH  27  30
ENDBRANCH  21  22
ENDBRANCH  18  20
ENDBRANCH   1  18
TORSDOF 12
ENDMDL
MODEL 5
REMARK VINA RESULT:      -7.5      2.723      6.845
REMARK SMILES O=C(/C=C/c1ccc(O)c(O)c1)O[C@H](Cc1ccc(O)c(O)c1)C(=O)O
REMARK SMILES IDX 13 1 14 2 15 3 16 4 17 5 18 6 19 7 23 8 21 9 20 10 22 12
REMARK SMILES IDX 24 14 25 15 26 16 2 18 1 19 3 20 4 21 5 22 12 23 6 24 10 25
REMARK SMILES IDX 7 26 8 27 11 28 9 30
REMARK H PARENT 20 11 22 13 26 17 11 29 9 31
ROOT
ATOM      1  O   UNL     1      -5.291  -0.191 -29.017  1.00  0.00    -0.447 OA
ENDROOT
BRANCH   1   2
ATOM      2  C   UNL     1      -6.453   0.639 -29.189  1.00  0.00     0.290 C 
BRANCH   2   3
ATOM      3  C   UNL     1      -6.387   1.276 -30.588  1.00  0.00     0.093 C 
BRANCH   3   4
ATOM      4  C   UNL     1      -7.591   0.945 -31.445  1.00  0.00    -0.040 A 
ATOM      5  C   UNL     1      -7.467   0.869 -32.843  1.00  0.00     0.008 A 
ATOM      6  C   UNL     1      -8.568   0.552 -33.645  1.00  0.00     0.050 A 
ATOM      7  C   UNL     1      -9.796   0.308 -33.045  1.00  0.00     0.157 A 
ATOM      8  C   UNL     1      -8.844   0.712 -30.859  1.00  0.00     0.054 A 
ATOM      9  C   UNL     1      -9.928   0.388 -31.662  1.00  0.00     0.157 A 
BRANCH   7  10
ATOM     10  O   UNL     1     -10.907  -0.015 -33.773  1.00  0.00    -0.504 OA
ATOM     11  H   UNL     1     -10.962  -0.985 -33.826  1.00  0.00     0.293 HD
ENDBRANCH   7  10
BRANCH   9  12
ATOM     12  O   UNL     1     -11.138   0.143 -31.078  1.00  0.00    -0.504 OA
ATOM     13  H   UNL     1     -11.659   0.954 -31.245  1.00  0.00     0.293 HD
ENDBRANCH   9  12
ENDBRANCH   3   4
ENDBRANCH   2   3
BRANCH   2  14
ATOM     14  C   UNL     1      -6.532   1.742 -28.124  1.00  0.00     0.345 C 
ATOM     15  O   UNL     1      -6.585   2.940 -28.368  1.00  0.00    -0.248 OA
BRANCH  14  16
ATOM     16  O   UNL     1      -6.550   1.279 -26.851  1.00  0.00    -0.478 OA
ATOM     17  H   UNL     1      -5.765   1.544 -26.312  1.00  0.00     0.296 HD
ENDBRANCH  14  16
ENDBRANCH   2  14
ENDBRANCH   1   2
BRANCH   1  18
ATOM     18  C   UNL     1      -5.376  -1.418 -29.576  1.00  0.00     0.331 C 
ATOM     19  O   UNL     1      -4.594  -1.866 -30.401  1.00  0.00    -0.247 OA
BRANCH  18  20
ATOM     20  C   UNL     1      -6.586  -2.089 -29.074  1.00  0.00     0.094 C 
ATOM     21  C   UNL     1      -7.257  -2.937 -29.867  1.00  0.00     0.016 C 
BRANCH  21  22
ATOM     22  C   UNL     1      -8.483  -3.629 -29.453  1.00  0.00    -0.021 A 
ATOM     23  C   UNL     1      -9.263  -4.358 -30.367  1.00  0.00     0.058 A 
ATOM     24  C   UNL     1      -8.847  -3.615 -28.097  1.00  0.00     0.012 A 
ATOM     25  C   UNL     1     -10.393  -5.035 -29.920  1.00  0.00     0.157 A 
ATOM     26  C   UNL     1      -9.986  -4.294 -27.658  1.00  0.00     0.051 A 
ATOM     27  C   UNL     1     -10.750  -4.998 -28.575  1.00  0.00     0.157 A 
BRANCH  25  28
ATOM     28  O   UNL     1     -11.184  -5.760 -30.766  1.00  0.00    -0.504 OA
ATOM     29  H   UNL     1     -11.895  -6.171 -30.245  1.00  0.00     0.293 HD
ENDBRANCH  25  28
BRANCH  27  30
ATOM     30  O   UNL     1     -11.859  -5.668 -28.145  1.00  0.00    -0.504 OA
ATOM     31  H   UNL     1     -12.387  -4.991 -27.675  1.00  0.00     0.293 HD
ENDBRANCH  27  30
ENDBRANCH  21  22
ENDBRANCH  18  20
ENDBRANCH   1  18
TORSDOF 12
ENDMDL
MODEL 6
REMARK VINA RESULT:      -7.5      2.446      4.953
REMARK SMILES O=C(/C=C/c1ccc(O)c(O)c1)O[C@H](Cc1ccc(O)c(O)c1)C(=O)O
REMARK SMILES IDX 13 1 14 2 15 3 16 4 17 5 18 6 19 7 23 8 21 9 20 10 22 12
REMARK SMILES IDX 24 14 25 15 26 16 2 18 1 19 3 20 4 21 5 22 12 23 6 24 10 25
REMARK SMILES IDX 7 26 8 27 11 28 9 30
REMARK H PARENT 20 11 22 13 26 17 11 29 9 31
ROOT
ATOM      1  O   UNL     1      -9.450  -2.281 -28.587  1.00  0.00    -0.447 OA
ENDROOT
BRANCH   1   2
ATOM      2  C   UNL     1      -8.948  -3.129 -29.634  1.00  0.00     0.290 C 
BRANCH   2   3
ATOM      3  C   UNL     1      -9.716  -2.803 -30.927  1.00  0.00     0.093 C 
BRANCH   3   4
ATOM      4  C   UNL     1      -9.365  -1.444 -31.495  1.00  0.00    -0.040 A 
ATOM      5  C   UNL     1      -8.021  -1.061 -31.639  1.00  0.00     0.008 A 
ATOM      6  C   UNL     1      -7.683   0.187 -32.174  1.00  0.00     0.050 A 
ATOM      7  C   UNL     1      -8.695   1.051 -32.568  1.00  0.00     0.157 A 
ATOM      8  C   UNL     1     -10.374  -0.549 -31.884  1.00  0.00     0.054 A 
ATOM      9  C   UNL     1     -10.029   0.682 -32.423  1.00  0.00     0.157 A 
BRANCH   7  10
ATOM     10  O   UNL     1      -8.430   2.280 -33.106  1.00  0.00    -0.504 OA
ATOM     11  H   UNL     1      -9.270   2.768 -33.174  1.00  0.00     0.293 HD
ENDBRANCH   7  10
BRANCH   9  12
ATOM     12  O   UNL     1     -11.019   1.536 -32.816  1.00  0.00    -0.504 OA
ATOM     13  H   UNL     1     -10.897   2.327 -32.255  1.00  0.00     0.293 HD
ENDBRANCH   9  12
ENDBRANCH   3   4
ENDBRANCH   2   3
BRANCH   2  14
ATOM     14  C   UNL     1      -9.117  -4.617 -29.296  1.00  0.00     0.345 C 
ATOM     15  O   UNL     1      -9.117  -5.521 -30.120  1.00  0.00    -0.248 OA
BRANCH  14  16
ATOM     16  O   UNL     1      -9.260  -4.868 -27.972  1.00  0.00    -0.478 OA
ATOM     17  H   UNL     1      -8.434  -5.182 -27.528  1.00  0.00     0.296 HD
ENDBRANCH  14  16
ENDBRANCH   2  14
ENDBRANCH   1   2
BRANCH   1  18
ATOM     18  C   UNL     1      -8.594  -2.068 -27.563  1.00  0.00     0.331 C 
ATOM     19  O   UNL     1      -8.818  -2.347 -26.395  1.00  0.00    -0.247 OA
BRANCH  18  20
ATOM     20  C   UNL     1      -7.389  -1.398 -28.079  1.00  0.00     0.094 C 
ATOM     21  C   UNL     1      -6.231  -2.071 -28.152  1.00  0.00     0.016 C 
BRANCH  21  22
ATOM     22  C   UNL     1      -4.980  -1.474 -28.632  1.00  0.00    -0.021 A 
ATOM     23  C   UNL     1      -4.618  -1.511 -29.989  1.00  0.00     0.058 A 
ATOM     24  C   UNL     1      -4.158  -0.791 -27.720  1.00  0.00     0.012 A 
ATOM     25  C   UNL     1      -3.443  -0.893 -30.405  1.00  0.00     0.157 A 
ATOM     26  C   UNL     1      -2.978  -0.177 -28.146  1.00  0.00     0.051 A 
ATOM     27  C   UNL     1      -2.631  -0.234 -29.487  1.00  0.00     0.157 A 
BRANCH  25  28
ATOM     28  O   UNL     1      -3.047  -0.897 -31.713  1.00  0.00    -0.504 OA
ATOM     29  H   UNL     1      -3.838  -0.976 -32.273  1.00  0.00     0.293 HD
ENDBRANCH  25  28
BRANCH  27  30
ATOM     30  O   UNL     1      -1.482   0.373 -29.904  1.00  0.00    -0.504 OA
ATOM     31  H   UNL     1      -1.120   0.794 -29.098  1.00  0.00     0.293 HD
ENDBRANCH  27  30
ENDBRANCH  21  22
ENDBRANCH  18  20
ENDBRANCH   1  18
TORSDOF 12
ENDMDL
MODEL 7
REMARK VINA RESULT:      -7.5      1.732      3.205
REMARK SMILES O=C(/C=C/c1ccc(O)c(O)c1)O[C@H](Cc1ccc(O)c(O)c1)C(=O)O
REMARK SMILES IDX 13 1 14 2 15 3 16 4 17 5 18 6 19 7 23 8 21 9 20 10 22 12
REMARK SMILES IDX 24 14 25 15 26 16 2 18 1 19 3 20 4 21 5 22 12 23 6 24 10 25
REMARK SMILES IDX 7 26 8 27 11 28 9 30
REMARK H PARENT 20 11 22 13 26 17 11 29 9 31
ROOT
ATOM      1  O   UNL     1      -9.317  -1.158 -30.730  1.00  0.00    -0.447 OA
ENDROOT
BRANCH   1   2
ATOM      2  C   UNL     1      -9.059  -0.202 -31.773  1.00  0.00     0.290 C 
BRANCH   2   3
ATOM      3  C   UNL     1      -9.041   1.202 -31.144  1.00  0.00     0.093 C 
BRANCH   3   4
ATOM      4  C   UNL     1      -7.640   1.719 -30.893  1.00  0.00    -0.040 A 
ATOM      5  C   UNL     1      -6.662   1.633 -31.898  1.00  0.00     0.008 A 
ATOM      6  C   UNL     1      -5.367   2.118 -31.683  1.00  0.00     0.050 A 
ATOM      7  C   UNL     1      -5.053   2.692 -30.459  1.00  0.00     0.157 A 
ATOM      8  C   UNL     1      -7.298   2.287 -29.656  1.00  0.00     0.054 A 
ATOM      9  C   UNL     1      -6.015   2.774 -29.456  1.00  0.00     0.157 A 
BRANCH   7  10
ATOM     10  O   UNL     1      -3.809   3.191 -30.191  1.00  0.00    -0.504 OA
ATOM     11  H   UNL     1      -3.807   3.521 -29.275  1.00  0.00     0.293 HD
ENDBRANCH   7  10
BRANCH   9  12
ATOM     12  O   UNL     1      -5.700   3.343 -28.255  1.00  0.00    -0.504 OA
ATOM     13  H   UNL     1      -5.159   2.668 -27.799  1.00  0.00     0.293 HD
ENDBRANCH   9  12
ENDBRANCH   3   4
ENDBRANCH   2   3
BRANCH   2  14
ATOM     14  C   UNL     1     -10.125  -0.258 -32.877  1.00  0.00     0.345 C 
ATOM     15  O   UNL     1      -9.881  -0.311 -34.074  1.00  0.00    -0.248 OA
BRANCH  14  16
ATOM     16  O   UNL     1     -11.398  -0.256 -32.414  1.00  0.00    -0.478 OA
ATOM     17  H   UNL     1     -12.031   0.257 -32.974  1.00  0.00     0.296 HD
ENDBRANCH  14  16
ENDBRANCH   2  14
ENDBRANCH   1   2
BRANCH   1  18
ATOM     18  C   UNL     1      -8.307  -2.023 -30.483  1.00  0.00     0.331 C 
ATOM     19  O   UNL     1      -8.319  -3.211 -30.766  1.00  0.00    -0.247 OA
BRANCH  18  20
ATOM     20  C   UNL     1      -7.232  -1.310 -29.773  1.00  0.00     0.094 C 
ATOM     21  C   UNL     1      -5.955  -1.492 -30.140  1.00  0.00     0.016 C 
BRANCH  21  22
ATOM     22  C   UNL     1      -4.823  -0.840 -29.472  1.00  0.00    -0.021 A 
ATOM     23  C   UNL     1      -4.918  -0.370 -28.151  1.00  0.00     0.058 A 
ATOM     24  C   UNL     1      -3.597  -0.744 -30.150  1.00  0.00     0.012 A 
ATOM     25  C   UNL     1      -3.804   0.203 -27.544  1.00  0.00     0.157 A 
ATOM     26  C   UNL     1      -2.486  -0.163 -29.534  1.00  0.00     0.051 A 
ATOM     27  C   UNL     1      -2.600   0.306 -28.235  1.00  0.00     0.157 A 
BRANCH  25  28
ATOM     28  O   UNL     1      -3.842   0.673 -26.261  1.00  0.00    -0.504 OA
ATOM     29  H   UNL     1      -2.960   1.015 -26.034  1.00  0.00     0.293 HD
ENDBRANCH  25  28
BRANCH  27  30
ATOM     30  O   UNL     1      -1.512   0.866 -27.630  1.00  0.00    -0.504 OA
ATOM     31  H   UNL     1      -1.114   0.135 -27.117  1.00  0.00     0.293 HD
ENDBRANCH  27  30
ENDBRANCH  21  22
ENDBRANCH  18  20
ENDBRANCH   1  18
TORSDOF 12
ENDMDL
MODEL 8
REMARK VINA RESULT:      -7.4      3.143      5.547
REMARK SMILES O=C(/C=C/c1ccc(O)c(O)c1)O[C@H](Cc1ccc(O)c(O)c1)C(=O)O
REMARK SMILES IDX 13 1 14 2 15 3 16 4 17 5 18 6 19 7 23 8 21 9 20 10 22 12
REMARK SMILES IDX 24 14 25 15 26 16 2 18 1 19 3 20 4 21 5 22 12 23 6 24 10 25
REMARK SMILES IDX 7 26 8 27 11 28 9 30
REMARK H PARENT 20 11 22 13 26 17 11 29 9 31
ROOT
ATOM      1  O   UNL     1      -7.562  -1.529 -26.543  1.00  0.00    -0.447 OA
ENDROOT
BRANCH   1   2
ATOM      2  C   UNL     1      -6.550  -0.922 -25.720  1.00  0.00     0.290 C 
BRANCH   2   3
ATOM      3  C   UNL     1      -5.240  -1.705 -25.913  1.00  0.00     0.093 C 
BRANCH   3   4
ATOM      4  C   UNL     1      -4.383  -1.154 -27.034  1.00  0.00    -0.040 A 
ATOM      5  C   UNL     1      -4.173  -1.908 -28.202  1.00  0.00     0.008 A 
ATOM      6  C   UNL     1      -3.394  -1.406 -29.250  1.00  0.00     0.050 A 
ATOM      7  C   UNL     1      -2.826  -0.145 -29.128  1.00  0.00     0.157 A 
ATOM      8  C   UNL     1      -3.785   0.110 -26.923  1.00  0.00     0.054 A 
ATOM      9  C   UNL     1      -3.023   0.604 -27.971  1.00  0.00     0.157 A 
BRANCH   7  10
ATOM     10  O   UNL     1      -2.061   0.404 -30.120  1.00  0.00    -0.504 OA
ATOM     11  H   UNL     1      -1.228   0.714 -29.722  1.00  0.00     0.293 HD
ENDBRANCH   7  10
BRANCH   9  12
ATOM     12  O   UNL     1      -2.463   1.844 -27.859  1.00  0.00    -0.504 OA
ATOM     13  H   UNL     1      -2.539   2.229 -28.754  1.00  0.00     0.293 HD
ENDBRANCH   9  12
ENDBRANCH   3   4
ENDBRANCH   2   3
BRANCH   2  14
ATOM     14  C   UNL     1      -6.940  -0.929 -24.235  1.00  0.00     0.345 C 
ATOM     15  O   UNL     1      -7.502  -0.007 -23.661  1.00  0.00    -0.248 OA
BRANCH  14  16
ATOM     16  O   UNL     1      -6.615  -2.073 -23.585  1.00  0.00    -0.478 OA
ATOM     17  H   UNL     1      -6.518  -2.860 -24.175  1.00  0.00     0.296 HD
ENDBRANCH  14  16
ENDBRANCH   2  14
ENDBRANCH   1   2
BRANCH   1  18
ATOM     18  C   UNL     1      -8.357  -0.661 -27.206  1.00  0.00     0.331 C 
ATOM     19  O   UNL     1      -9.533  -0.855 -27.474  1.00  0.00    -0.247 OA
BRANCH  18  20
ATOM     20  C   UNL     1      -7.561   0.515 -27.595  1.00  0.00     0.094 C 
ATOM     21  C   UNL     1      -7.059   0.599 -28.836  1.00  0.00     0.016 C 
BRANCH  21  22
ATOM     22  C   UNL     1      -6.237   1.724 -29.298  1.00  0.00    -0.021 A 
ATOM     23  C   UNL     1      -5.963   2.826 -28.471  1.00  0.00     0.058 A 
ATOM     24  C   UNL     1      -5.659   1.663 -30.576  1.00  0.00     0.012 A 
ATOM     25  C   UNL     1      -5.142   3.848 -28.937  1.00  0.00     0.157 A 
ATOM     26  C   UNL     1      -4.840   2.696 -31.038  1.00  0.00     0.051 A 
ATOM     27  C   UNL     1      -4.590   3.782 -30.213  1.00  0.00     0.157 A 
BRANCH  25  28
ATOM     28  O   UNL     1      -4.842   4.940 -28.173  1.00  0.00    -0.504 OA
ATOM     29  H   UNL     1      -4.069   5.384 -28.562  1.00  0.00     0.293 HD
ENDBRANCH  25  28
BRANCH  27  30
ATOM     30  O   UNL     1      -3.783   4.787 -30.661  1.00  0.00    -0.504 OA
ATOM     31  H   UNL     1      -4.177   5.056 -31.515  1.00  0.00     0.293 HD
ENDBRANCH  27  30
ENDBRANCH  21  22
ENDBRANCH  18  20
ENDBRANCH   1  18
TORSDOF 12
ENDMDL
MODEL 9
REMARK VINA RESULT:      -7.4      2.132      6.130
REMARK SMILES O=C(/C=C/c1ccc(O)c(O)c1)O[C@H](Cc1ccc(O)c(O)c1)C(=O)O
REMARK SMILES IDX 13 1 14 2 15 3 16 4 17 5 18 6 19 7 23 8 21 9 20 10 22 12
REMARK SMILES IDX 24 14 25 15 26 16 2 18 1 19 3 20 4 21 5 22 12 23 6 24 10 25
REMARK SMILES IDX 7 26 8 27 11 28 9 30
REMARK H PARENT 20 11 22 13 26 17 11 29 9 31
ROOT
ATOM      1  O   UNL     1      -3.952   1.247 -29.089  1.00  0.00    -0.447 OA
ENDROOT
BRANCH   1   2
ATOM      2  C   UNL     1      -3.869  -0.072 -29.657  1.00  0.00     0.290 C 
BRANCH   2   3
ATOM      3  C   UNL     1      -3.723  -1.083 -28.507  1.00  0.00     0.093 C 
BRANCH   3   4
ATOM      4  C   UNL     1      -4.698  -0.835 -27.375  1.00  0.00    -0.040 A 
ATOM      5  C   UNL     1      -6.051  -1.188 -27.516  1.00  0.00     0.008 A 
ATOM      6  C   UNL     1      -6.960  -0.976 -26.473  1.00  0.00     0.050 A 
ATOM      7  C   UNL     1      -6.512  -0.411 -25.288  1.00  0.00     0.157 A 
ATOM      8  C   UNL     1      -4.268  -0.249 -26.175  1.00  0.00     0.054 A 
ATOM      9  C   UNL     1      -5.174  -0.052 -25.144  1.00  0.00     0.157 A 
BRANCH   7  10
ATOM     10  O   UNL     1      -7.348  -0.186 -24.229  1.00  0.00    -0.504 OA
ATOM     11  H   UNL     1      -7.961  -0.939 -24.163  1.00  0.00     0.293 HD
ENDBRANCH   7  10
BRANCH   9  12
ATOM     12  O   UNL     1      -4.739   0.501 -23.973  1.00  0.00    -0.504 OA
ATOM     13  H   UNL     1      -5.251   0.040 -23.279  1.00  0.00     0.293 HD
ENDBRANCH   9  12
ENDBRANCH   3   4
ENDBRANCH   2   3
BRANCH   2  14
ATOM     14  C   UNL     1      -2.679  -0.208 -30.618  1.00  0.00     0.345 C 
ATOM     15  O   UNL     1      -1.524   0.079 -30.336  1.00  0.00    -0.248 OA
BRANCH  14  16
ATOM     16  O   UNL     1      -3.008  -0.696 -31.838  1.00  0.00    -0.478 OA
ATOM     17  H   UNL     1      -3.680  -1.421 -31.816  1.00  0.00     0.296 HD
ENDBRANCH  14  16
ENDBRANCH   2  14
ENDBRANCH   1   2
BRANCH   1  18
ATOM     18  C   UNL     1      -4.659   2.141 -29.817  1.00  0.00     0.331 C 
ATOM     19  O   UNL     1      -4.301   3.283 -30.059  1.00  0.00    -0.247 OA
BRANCH  18  20
ATOM     20  C   UNL     1      -5.939   1.530 -30.210  1.00  0.00     0.094 C 
ATOM     21  C   UNL     1      -6.483   1.828 -31.399  1.00  0.00     0.016 C 
BRANCH  21  22
ATOM     22  C   UNL     1      -7.765   1.281 -31.859  1.00  0.00    -0.021 A 
ATOM     23  C   UNL     1      -8.797   0.966 -30.959  1.00  0.00     0.058 A 
ATOM     24  C   UNL     1      -7.986   1.133 -33.238  1.00  0.00     0.012 A 
ATOM     25  C   UNL     1     -10.011   0.492 -31.445  1.00  0.00     0.157 A 
ATOM     26  C   UNL     1      -9.207   0.652 -33.716  1.00  0.00     0.051 A 
ATOM     27  C   UNL     1     -10.210   0.334 -32.814  1.00  0.00     0.157 A 
BRANCH  25  28
ATOM     28  O   UNL     1     -11.049   0.173 -30.614  1.00  0.00    -0.504 OA
ATOM     29  H   UNL     1     -11.280  -0.761 -30.756  1.00  0.00     0.293 HD
ENDBRANCH  25  28
BRANCH  27  30
ATOM     30  O   UNL     1     -11.405  -0.128 -33.282  1.00  0.00    -0.504 OA
ATOM     31  H   UNL     1     -11.266  -0.236 -34.244  1.00  0.00     0.293 HD
ENDBRANCH  27  30
ENDBRANCH  21  22
ENDBRANCH  18  20
ENDBRANCH   1  18
TORSDOF 12
ENDMDL
MODEL 10
REMARK VINA RESULT:      -7.4      1.770      2.340
REMARK SMILES O=C(/C=C/c1ccc(O)c(O)c1)O[C@H](Cc1ccc(O)c(O)c1)C(=O)O
REMARK SMILES IDX 13 1 14 2 15 3 16 4 17 5 18 6 19 7 23 8 21 9 20 10 22 12
REMARK SMILES IDX 24 14 25 15 26 16 2 18 1 19 3 20 4 21 5 22 12 23 6 24 10 25
REMARK SMILES IDX 7 26 8 27 11 28 9 30
REMARK H PARENT 20 11 22 13 26 17 11 29 9 31
ROOT
ATOM      1  O   UNL     1      -8.561   1.307 -31.709  1.00  0.00    -0.447 OA
ENDROOT
BRANCH   1   2
ATOM      2  C   UNL     1      -9.604   0.318 -31.771  1.00  0.00     0.290 C 
BRANCH   2   3
ATOM      3  C   UNL     1      -8.952  -1.054 -32.016  1.00  0.00     0.093 C 
BRANCH   3   4
ATOM      4  C   UNL     1      -9.055  -1.979 -30.822  1.00  0.00    -0.040 A 
ATOM      5  C   UNL     1      -9.226  -1.452 -29.530  1.00  0.00     0.008 A 
ATOM      6  C   UNL     1      -9.336  -2.295 -28.419  1.00  0.00     0.050 A 
ATOM      7  C   UNL     1      -9.275  -3.670 -28.604  1.00  0.00     0.157 A 
ATOM      8  C   UNL     1      -8.979  -3.370 -30.985  1.00  0.00     0.054 A 
ATOM      9  C   UNL     1      -9.099  -4.199 -29.879  1.00  0.00     0.157 A 
BRANCH   7  10
ATOM     10  O   UNL     1      -9.384  -4.547 -27.561  1.00  0.00    -0.504 OA
ATOM     11  H   UNL     1      -8.837  -4.214 -26.828  1.00  0.00     0.293 HD
ENDBRANCH   7  10
BRANCH   9  12
ATOM     12  O   UNL     1      -9.043  -5.552 -30.054  1.00  0.00    -0.504 OA
ATOM     13  H   UNL     1      -9.210  -5.683 -31.009  1.00  0.00     0.293 HD
ENDBRANCH   9  12
ENDBRANCH   3   4
ENDBRANCH   2   3
BRANCH   2  14
ATOM     14  C   UNL     1     -10.611   0.617 -32.891  1.00  0.00     0.345 C 
ATOM     15  O   UNL     1     -11.163  -0.234 -33.574  1.00  0.00    -0.248 OA
BRANCH  14  16
ATOM     16  O   UNL     1     -10.861   1.937 -33.068  1.00  0.00    -0.478 OA
ATOM     17  H   UNL     1     -11.641   2.273 -32.562  1.00  0.00     0.296 HD
ENDBRANCH  14  16
ENDBRANCH   2  14
ENDBRANCH   1   2
BRANCH   1  18
ATOM     18  C   UNL     1      -7.571   1.153 -32.616  1.00  0.00     0.331 C 
ATOM     19  O   UNL     1      -7.740   0.925 -33.804  1.00  0.00    -0.247 OA
BRANCH  18  20
ATOM     20  C   UNL     1      -6.274   1.246 -31.926  1.00  0.00     0.094 C 
ATOM     21  C   UNL     1      -6.172   0.873 -30.642  1.00  0.00     0.016 C 
BRANCH  21  22
ATOM     22  C   UNL     1      -4.924   0.954 -29.875  1.00  0.00    -0.021 A 
ATOM     23  C   UNL     1      -4.511   2.150 -29.263  1.00  0.00     0.058 A 
ATOM     24  C   UNL     1      -4.159  -0.210 -29.695  1.00  0.00     0.012 A 
ATOM     25  C   UNL     1      -3.342   2.167 -28.508  1.00  0.00     0.157 A 
ATOM     26  C   UNL     1      -2.984  -0.181 -28.939  1.00  0.00     0.051 A 
ATOM     27  C   UNL     1      -2.586   1.009 -28.353  1.00  0.00     0.157 A 
BRANCH  25  28
ATOM     28  O   UNL     1      -2.897   3.303 -27.890  1.00  0.00    -0.504 OA
ATOM     29  H   UNL     1      -2.999   4.048 -28.507  1.00  0.00     0.293 HD
ENDBRANCH  25  28
BRANCH  27  30
ATOM     30  O   UNL     1      -1.442   1.035 -27.608  1.00  0.00    -0.504 OA
ATOM     31  H   UNL     1      -0.837   0.419 -28.067  1.00  0.00     0.293 HD
ENDBRANCH  27  30
ENDBRANCH  21  22
ENDBRANCH  18  20
ENDBRANCH   1  18
TORSDOF 12
ENDMDL
