MODEL 1
REMARK VINA RESULT:      -8.7      0.000      0.000
REMARK SMILES O=C(/C=C/c1ccc(O)c(O)c1)O[C@@H]1[C@H](O)C[C@@](O)(C(=O)O)C[C@H]1OC(=O)/C=C/c1ccc(O)c(O)c1
REMARK SMILES IDX 17 1 15 2 14 3 24 4 23 5 18 6 16 7 19 9 20 11 21 12 22 13
REMARK SMILES IDX 13 15 2 16 1 17 3 18 4 19 5 20 12 21 6 22 10 23 7 24 8 25
REMARK SMILES IDX 11 26 9 28 25 30 26 31 27 32 28 33 29 34 30 35 37 36 31 37
REMARK SMILES IDX 35 38 32 39 33 40 36 41 34 43
REMARK H PARENT 16 8 19 10 22 14 11 27 9 29 36 42 34 44
ROOT
ATOM      1  C   UNL     1     -10.427  -2.489 -22.931  1.00  0.00     0.083 C 
ATOM      2  C   UNL     1     -10.462  -1.398 -23.997  1.00  0.00     0.162 C 
ATOM      3  C   UNL     1      -9.147  -1.353 -24.795  1.00  0.00     0.246 C 
ATOM      4  C   UNL     1      -7.937  -1.155 -23.860  1.00  0.00     0.223 C 
ATOM      5  C   UNL     1      -7.907  -2.227 -22.765  1.00  0.00     0.097 C 
ATOM      6  C   UNL     1      -9.224  -2.311 -21.994  1.00  0.00     0.168 C 
ENDROOT
BRANCH   2   7
ATOM      7  O   UNL     1     -10.672  -0.146 -23.324  1.00  0.00    -0.389 OA
ATOM      8  H   UNL     1     -10.318  -0.257 -22.418  1.00  0.00     0.211 HD
ENDBRANCH   2   7
BRANCH   6   9
ATOM      9  O   UNL     1      -9.373  -1.117 -21.197  1.00  0.00    -0.378 OA
ATOM     10  H   UNL     1     -10.321  -0.848 -21.253  1.00  0.00     0.212 HD
ENDBRANCH   6   9
BRANCH   6  11
ATOM     11  C   UNL     1      -9.170  -3.495 -21.017  1.00  0.00     0.335 C 
ATOM     12  O   UNL     1      -9.347  -3.420 -19.811  1.00  0.00    -0.249 OA
BRANCH  11  13
ATOM     13  O   UNL     1      -8.906  -4.661 -21.662  1.00  0.00    -0.479 OA
ATOM     14  H   UNL     1      -8.255  -5.155 -21.104  1.00  0.00     0.296 HD
ENDBRANCH  11  13
ENDBRANCH   6  11
BRANCH   3  15
ATOM     15  O   UNL     1      -9.200  -0.241 -25.717  1.00  0.00    -0.452 OA
BRANCH  15  16
ATOM     16  C   UNL     1      -8.854  -0.516 -26.996  1.00  0.00     0.331 C 
ATOM     17  O   UNL     1      -9.250  -1.457 -27.661  1.00  0.00    -0.247 OA
BRANCH  16  18
ATOM     18  C   UNL     1      -7.917   0.529 -27.448  1.00  0.00     0.094 C 
ATOM     19  C   UNL     1      -7.378   0.456 -28.675  1.00  0.00     0.016 C 
BRANCH  19  20
ATOM     20  C   UNL     1      -6.440   1.447 -29.222  1.00  0.00    -0.021 A 
ATOM     21  C   UNL     1      -6.097   2.555 -28.431  1.00  0.00     0.058 A 
ATOM     22  C   UNL     1      -5.921   1.349 -30.524  1.00  0.00     0.012 A 
ATOM     23  C   UNL     1      -5.231   3.522 -28.934  1.00  0.00     0.157 A 
ATOM     24  C   UNL     1      -5.052   2.325 -31.022  1.00  0.00     0.051 A 
ATOM     25  C   UNL     1      -4.713   3.402 -30.220  1.00  0.00     0.157 A 
BRANCH  23  26
ATOM     26  O   UNL     1      -4.860   4.614 -28.199  1.00  0.00    -0.504 OA
ATOM     27  H   UNL     1      -3.906   4.760 -28.329  1.00  0.00     0.293 HD
ENDBRANCH  23  26
BRANCH  25  28
ATOM     28  O   UNL     1      -3.866   4.355 -30.706  1.00  0.00    -0.504 OA
ATOM     29  H   UNL     1      -4.057   5.151 -30.173  1.00  0.00     0.293 HD
ENDBRANCH  25  28
ENDBRANCH  19  20
ENDBRANCH  16  18
ENDBRANCH  15  16
ENDBRANCH   3  15
BRANCH   4  30
ATOM     30  O   UNL     1      -6.714  -1.306 -24.620  1.00  0.00    -0.455 OA
BRANCH  30  31
ATOM     31  C   UNL     1      -5.731  -0.405 -24.383  1.00  0.00     0.331 C 
ATOM     32  O   UNL     1      -5.473   0.121 -23.310  1.00  0.00    -0.247 OA
BRANCH  31  33
ATOM     33  C   UNL     1      -4.965  -0.094 -25.607  1.00  0.00     0.094 C 
ATOM     34  C   UNL     1      -4.612  -1.001 -26.532  1.00  0.00     0.016 C 
BRANCH  34  35
ATOM     35  C   UNL     1      -3.865  -0.659 -27.751  1.00  0.00    -0.021 A 
ATOM     36  C   UNL     1      -3.944  -1.521 -28.856  1.00  0.00     0.058 A 
ATOM     37  C   UNL     1      -3.038   0.475 -27.819  1.00  0.00     0.012 A 
ATOM     38  C   UNL     1      -3.225  -1.225 -30.011  1.00  0.00     0.157 A 
ATOM     39  C   UNL     1      -2.318   0.762 -28.982  1.00  0.00     0.051 A 
ATOM     40  C   UNL     1      -2.421  -0.090 -30.069  1.00  0.00     0.157 A 
BRANCH  38  41
ATOM     41  O   UNL     1      -3.275  -2.024 -31.119  1.00  0.00    -0.504 OA
ATOM     42  H   UNL     1      -3.234  -1.457 -31.908  1.00  0.00     0.293 HD
ENDBRANCH  38  41
BRANCH  40  43
ATOM     43  O   UNL     1      -1.719   0.191 -31.205  1.00  0.00    -0.504 OA
ATOM     44  H   UNL     1      -0.846   0.498 -30.885  1.00  0.00     0.293 HD
ENDBRANCH  40  43
ENDBRANCH  34  35
ENDBRANCH  31  33
ENDBRANCH  30  31
ENDBRANCH   4  30
TORSDOF 16
ENDMDL
MODEL 2
REMARK VINA RESULT:      -8.7      1.999      4.283
REMARK SMILES O=C(/C=C/c1ccc(O)c(O)c1)O[C@@H]1[C@H](O)C[C@@](O)(C(=O)O)C[C@H]1OC(=O)/C=C/c1ccc(O)c(O)c1
REMARK SMILES IDX 17 1 15 2 14 3 24 4 23 5 18 6 16 7 19 9 20 11 21 12 22 13
REMARK SMILES IDX 13 15 2 16 1 17 3 18 4 19 5 20 12 21 6 22 10 23 7 24 8 25
REMARK SMILES IDX 11 26 9 28 25 30 26 31 27 32 28 33 29 34 30 35 37 36 31 37
REMARK SMILES IDX 35 38 32 39 33 40 36 41 34 43
REMARK H PARENT 16 8 19 10 22 14 11 27 9 29 36 42 34 44
ROOT
ATOM      1  C   UNL     1      -8.511  -2.155 -20.923  1.00  0.00     0.083 C 
ATOM      2  C   UNL     1      -7.632  -2.501 -22.122  1.00  0.00     0.162 C 
ATOM      3  C   UNL     1      -7.245  -1.240 -22.914  1.00  0.00     0.246 C 
ATOM      4  C   UNL     1      -8.498  -0.463 -23.369  1.00  0.00     0.223 C 
ATOM      5  C   UNL     1      -9.405  -0.137 -22.178  1.00  0.00     0.097 C 
ATOM      6  C   UNL     1      -9.761  -1.376 -21.357  1.00  0.00     0.168 C 
ENDROOT
BRANCH   2   7
ATOM      7  O   UNL     1      -8.381  -3.397 -22.960  1.00  0.00    -0.389 OA
ATOM      8  H   UNL     1      -8.324  -4.280 -22.539  1.00  0.00     0.211 HD
ENDBRANCH   2   7
BRANCH   6   9
ATOM      9  O   UNL     1     -10.637  -2.216 -22.139  1.00  0.00    -0.378 OA
ATOM     10  H   UNL     1     -10.064  -2.855 -22.627  1.00  0.00     0.212 HD
ENDBRANCH   6   9
BRANCH   6  11
ATOM     11  C   UNL     1     -10.547  -0.954 -20.107  1.00  0.00     0.335 C 
ATOM     12  O   UNL     1     -10.608  -1.591 -19.067  1.00  0.00    -0.249 OA
BRANCH  11  13
ATOM     13  O   UNL     1     -11.173   0.236 -20.292  1.00  0.00    -0.479 OA
ATOM     14  H   UNL     1     -10.814   0.857 -19.610  1.00  0.00     0.296 HD
ENDBRANCH  11  13
ENDBRANCH   6  11
BRANCH   3  15
ATOM     15  O   UNL     1      -6.502  -1.638 -24.088  1.00  0.00    -0.452 OA
BRANCH  15  16
ATOM     16  C   UNL     1      -5.489  -0.817 -24.452  1.00  0.00     0.331 C 
ATOM     17  O   UNL     1      -4.947   0.014 -23.745  1.00  0.00    -0.247 OA
BRANCH  16  18
ATOM     18  C   UNL     1      -5.149  -1.111 -25.857  1.00  0.00     0.094 C 
ATOM     19  C   UNL     1      -4.437  -0.224 -26.570  1.00  0.00     0.016 C 
BRANCH  19  20
ATOM     20  C   UNL     1      -4.042  -0.424 -27.972  1.00  0.00    -0.021 A 
ATOM     21  C   UNL     1      -4.110   0.670 -28.850  1.00  0.00     0.058 A 
ATOM     22  C   UNL     1      -3.655  -1.679 -28.471  1.00  0.00     0.012 A 
ATOM     23  C   UNL     1      -3.767   0.503 -30.189  1.00  0.00     0.157 A 
ATOM     24  C   UNL     1      -3.312  -1.838 -29.817  1.00  0.00     0.051 A 
ATOM     25  C   UNL     1      -3.370  -0.743 -30.664  1.00  0.00     0.157 A 
BRANCH  23  26
ATOM     26  O   UNL     1      -3.807   1.539 -31.082  1.00  0.00    -0.504 OA
ATOM     27  H   UNL     1      -2.905   1.889 -31.184  1.00  0.00     0.293 HD
ENDBRANCH  23  26
BRANCH  25  28
ATOM     28  O   UNL     1      -3.036  -0.898 -31.978  1.00  0.00    -0.504 OA
ATOM     29  H   UNL     1      -2.101  -1.183 -31.963  1.00  0.00     0.293 HD
ENDBRANCH  25  28
ENDBRANCH  19  20
ENDBRANCH  16  18
ENDBRANCH  15  16
ENDBRANCH   3  15
BRANCH   4  30
ATOM     30  O   UNL     1      -8.095   0.804 -23.941  1.00  0.00    -0.455 OA
BRANCH  30  31
ATOM     31  C   UNL     1      -8.669   1.153 -25.118  1.00  0.00     0.331 C 
ATOM     32  O   UNL     1      -9.173   2.234 -25.386  1.00  0.00    -0.247 OA
BRANCH  31  33
ATOM     33  C   UNL     1      -8.632   0.046 -26.096  1.00  0.00     0.094 C 
ATOM     34  C   UNL     1      -8.081   0.131 -27.317  1.00  0.00     0.016 C 
BRANCH  34  35
ATOM     35  C   UNL     1      -8.043  -0.994 -28.262  1.00  0.00    -0.021 A 
ATOM     36  C   UNL     1      -8.376  -2.277 -27.800  1.00  0.00     0.058 A 
ATOM     37  C   UNL     1      -7.633  -0.828 -29.596  1.00  0.00     0.012 A 
ATOM     38  C   UNL     1      -8.324  -3.358 -28.674  1.00  0.00     0.157 A 
ATOM     39  C   UNL     1      -7.582  -1.921 -30.466  1.00  0.00     0.051 A 
ATOM     40  C   UNL     1      -7.931  -3.177 -29.997  1.00  0.00     0.157 A 
BRANCH  38  41
ATOM     41  O   UNL     1      -8.649  -4.626 -28.278  1.00  0.00    -0.504 OA
ATOM     42  H   UNL     1      -9.531  -4.603 -27.868  1.00  0.00     0.293 HD
ENDBRANCH  38  41
BRANCH  40  43
ATOM     43  O   UNL     1      -7.880  -4.243 -30.847  1.00  0.00    -0.504 OA
ATOM     44  H   UNL     1      -6.925  -4.412 -30.973  1.00  0.00     0.293 HD
ENDBRANCH  40  43
ENDBRANCH  34  35
ENDBRANCH  31  33
ENDBRANCH  30  31
ENDBRANCH   4  30
TORSDOF 16
ENDMDL
MODEL 3
REMARK VINA RESULT:      -8.6      1.463      3.921
REMARK SMILES O=C(/C=C/c1ccc(O)c(O)c1)O[C@@H]1[C@H](O)C[C@@](O)(C(=O)O)C[C@H]1OC(=O)/C=C/c1ccc(O)c(O)c1
REMARK SMILES IDX 17 1 15 2 14 3 24 4 23 5 18 6 16 7 19 9 20 11 21 12 22 13
REMARK SMILES IDX 13 15 2 16 1 17 3 18 4 19 5 20 12 21 6 22 10 23 7 24 8 25
REMARK SMILES IDX 11 26 9 28 25 30 26 31 27 32 28 33 29 34 30 35 37 36 31 37
REMARK SMILES IDX 35 38 32 39 33 40 36 41 34 43
REMARK H PARENT 16 8 19 10 22 14 11 27 9 29 36 42 34 44
ROOT
ATOM      1  C   UNL     1      -8.506  -2.043 -20.691  1.00  0.00     0.083 C 
ATOM      2  C   UNL     1      -7.633  -2.431 -21.881  1.00  0.00     0.162 C 
ATOM      3  C   UNL     1      -7.538  -1.285 -22.902  1.00  0.00     0.246 C 
ATOM      4  C   UNL     1      -8.937  -0.849 -23.381  1.00  0.00     0.223 C 
ATOM      5  C   UNL     1      -9.835  -0.486 -22.194  1.00  0.00     0.097 C 
ATOM      6  C   UNL     1      -9.904  -1.600 -21.149  1.00  0.00     0.168 C 
ENDROOT
BRANCH   2   7
ATOM      7  O   UNL     1      -8.229  -3.587 -22.492  1.00  0.00    -0.389 OA
ATOM      8  H   UNL     1      -7.683  -4.354 -22.223  1.00  0.00     0.211 HD
ENDBRANCH   2   7
BRANCH   6   9
ATOM      9  O   UNL     1     -10.633  -2.715 -21.706  1.00  0.00    -0.378 OA
ATOM     10  H   UNL     1     -10.638  -3.427 -21.023  1.00  0.00     0.212 HD
ENDBRANCH   6   9
BRANCH   6  11
ATOM     11  C   UNL     1     -10.700  -1.112 -19.930  1.00  0.00     0.335 C 
ATOM     12  O   UNL     1     -10.803  -1.712 -18.872  1.00  0.00    -0.249 OA
BRANCH  11  13
ATOM     13  O   UNL     1     -11.281   0.093 -20.165  1.00  0.00    -0.479 OA
ATOM     14  H   UNL     1     -10.576   0.683 -20.531  1.00  0.00     0.296 HD
ENDBRANCH  11  13
ENDBRANCH   6  11
BRANCH   3  15
ATOM     15  O   UNL     1      -6.785  -1.744 -24.048  1.00  0.00    -0.452 OA
BRANCH  15  16
ATOM     16  C   UNL     1      -5.718  -0.988 -24.396  1.00  0.00     0.331 C 
ATOM     17  O   UNL     1      -5.134  -0.195 -23.679  1.00  0.00    -0.247 OA
BRANCH  16  18
ATOM     18  C   UNL     1      -5.379  -1.298 -25.797  1.00  0.00     0.094 C 
ATOM     19  C   UNL     1      -4.514  -0.517 -26.462  1.00  0.00     0.016 C 
BRANCH  19  20
ATOM     20  C   UNL     1      -4.107  -0.742 -27.857  1.00  0.00    -0.021 A 
ATOM     21  C   UNL     1      -2.982  -0.059 -28.347  1.00  0.00     0.058 A 
ATOM     22  C   UNL     1      -4.836  -1.571 -28.726  1.00  0.00     0.012 A 
ATOM     23  C   UNL     1      -2.589  -0.234 -29.671  1.00  0.00     0.157 A 
ATOM     24  C   UNL     1      -4.435  -1.741 -30.055  1.00  0.00     0.051 A 
ATOM     25  C   UNL     1      -3.312  -1.071 -30.514  1.00  0.00     0.157 A 
BRANCH  23  26
ATOM     26  O   UNL     1      -1.495   0.401 -30.192  1.00  0.00    -0.504 OA
ATOM     27  H   UNL     1      -1.474   0.236 -31.151  1.00  0.00     0.293 HD
ENDBRANCH  23  26
BRANCH  25  28
ATOM     28  O   UNL     1      -2.922  -1.237 -31.811  1.00  0.00    -0.504 OA
ATOM     29  H   UNL     1      -3.382  -0.526 -32.300  1.00  0.00     0.293 HD
ENDBRANCH  25  28
ENDBRANCH  19  20
ENDBRANCH  16  18
ENDBRANCH  15  16
ENDBRANCH   3  15
BRANCH   4  30
ATOM     30  O   UNL     1      -8.818   0.346 -24.189  1.00  0.00    -0.455 OA
BRANCH  30  31
ATOM     31  C   UNL     1      -9.228   0.256 -25.477  1.00  0.00     0.331 C 
ATOM     32  O   UNL     1     -10.281  -0.223 -25.871  1.00  0.00    -0.247 OA
BRANCH  31  33
ATOM     33  C   UNL     1      -8.228   0.815 -26.411  1.00  0.00     0.094 C 
ATOM     34  C   UNL     1      -8.270   0.667 -27.744  1.00  0.00     0.016 C 
BRANCH  34  35
ATOM     35  C   UNL     1      -7.270   1.250 -28.650  1.00  0.00    -0.021 A 
ATOM     36  C   UNL     1      -7.188   0.770 -29.966  1.00  0.00     0.058 A 
ATOM     37  C   UNL     1      -6.364   2.235 -28.218  1.00  0.00     0.012 A 
ATOM     38  C   UNL     1      -6.233   1.295 -30.831  1.00  0.00     0.157 A 
ATOM     39  C   UNL     1      -5.406   2.754 -29.094  1.00  0.00     0.051 A 
ATOM     40  C   UNL     1      -5.352   2.280 -30.395  1.00  0.00     0.157 A 
BRANCH  38  41
ATOM     41  O   UNL     1      -6.118   0.871 -32.127  1.00  0.00    -0.504 OA
ATOM     42  H   UNL     1      -6.571   0.014 -32.210  1.00  0.00     0.293 HD
ENDBRANCH  38  41
BRANCH  40  43
ATOM     43  O   UNL     1      -4.417   2.787 -31.249  1.00  0.00    -0.504 OA
ATOM     44  H   UNL     1      -3.810   3.298 -30.676  1.00  0.00     0.293 HD
ENDBRANCH  40  43
ENDBRANCH  34  35
ENDBRANCH  31  33
ENDBRANCH  30  31
ENDBRANCH   4  30
TORSDOF 16
ENDMDL
MODEL 4
REMARK VINA RESULT:      -8.6      2.304      3.400
REMARK SMILES O=C(/C=C/c1ccc(O)c(O)c1)O[C@@H]1[C@H](O)C[C@@](O)(C(=O)O)C[C@H]1OC(=O)/C=C/c1ccc(O)c(O)c1
REMARK SMILES IDX 17 1 15 2 14 3 24 4 23 5 18 6 16 7 19 9 20 11 21 12 22 13
REMARK SMILES IDX 13 15 2 16 1 17 3 18 4 19 5 20 12 21 6 22 10 23 7 24 8 25
REMARK SMILES IDX 11 26 9 28 25 30 26 31 27 32 28 33 29 34 30 35 37 36 31 37
REMARK SMILES IDX 35 38 32 39 33 40 36 41 34 43
REMARK H PARENT 16 8 19 10 22 14 11 27 9 29 36 42 34 44
ROOT
ATOM      1  C   UNL     1     -11.541  -2.793 -24.464  1.00  0.00     0.083 C 
ATOM      2  C   UNL     1     -10.257  -1.969 -24.425  1.00  0.00     0.162 C 
ATOM      3  C   UNL     1      -9.757  -1.647 -25.844  1.00  0.00     0.246 C 
ATOM      4  C   UNL     1      -9.546  -2.935 -26.665  1.00  0.00     0.223 C 
ATOM      5  C   UNL     1     -10.818  -3.788 -26.686  1.00  0.00     0.097 C 
ATOM      6  C   UNL     1     -11.351  -4.079 -25.282  1.00  0.00     0.168 C 
ENDROOT
BRANCH   2   7
ATOM      7  O   UNL     1      -9.271  -2.740 -23.719  1.00  0.00    -0.389 OA
ATOM      8  H   UNL     1      -8.781  -3.248 -24.398  1.00  0.00     0.211 HD
ENDBRANCH   2   7
BRANCH   6   9
ATOM      9  O   UNL     1     -10.437  -4.975 -24.616  1.00  0.00    -0.378 OA
ATOM     10  H   UNL     1      -9.882  -4.426 -24.011  1.00  0.00     0.212 HD
ENDBRANCH   6   9
BRANCH   6  11
ATOM     11  C   UNL     1     -12.697  -4.810 -25.387  1.00  0.00     0.335 C 
ATOM     12  O   UNL     1     -13.136  -5.333 -26.400  1.00  0.00    -0.249 OA
BRANCH  11  13
ATOM     13  O   UNL     1     -13.353  -4.817 -24.198  1.00  0.00    -0.479 OA
ATOM     14  H   UNL     1     -12.777  -5.302 -23.557  1.00  0.00     0.296 HD
ENDBRANCH  11  13
ENDBRANCH   6  11
BRANCH   3  15
ATOM     15  O   UNL     1      -8.492  -0.954 -25.745  1.00  0.00    -0.452 OA
BRANCH  15  16
ATOM     16  C   UNL     1      -8.514   0.364 -26.050  1.00  0.00     0.331 C 
ATOM     17  O   UNL     1      -9.253   1.203 -25.564  1.00  0.00    -0.247 OA
BRANCH  16  18
ATOM     18  C   UNL     1      -7.478   0.612 -27.071  1.00  0.00     0.094 C 
ATOM     19  C   UNL     1      -7.839   0.904 -28.329  1.00  0.00     0.016 C 
BRANCH  19  20
ATOM     20  C   UNL     1      -6.887   1.172 -29.417  1.00  0.00    -0.021 A 
ATOM     21  C   UNL     1      -5.752   1.950 -29.139  1.00  0.00     0.058 A 
ATOM     22  C   UNL     1      -7.104   0.723 -30.731  1.00  0.00     0.012 A 
ATOM     23  C   UNL     1      -4.847   2.241 -30.156  1.00  0.00     0.157 A 
ATOM     24  C   UNL     1      -6.191   1.021 -31.747  1.00  0.00     0.051 A 
ATOM     25  C   UNL     1      -5.068   1.775 -31.449  1.00  0.00     0.157 A 
BRANCH  23  26
ATOM     26  O   UNL     1      -3.722   2.986 -29.934  1.00  0.00    -0.504 OA
ATOM     27  H   UNL     1      -3.916   3.630 -29.231  1.00  0.00     0.293 HD
ENDBRANCH  23  26
BRANCH  25  28
ATOM     28  O   UNL     1      -4.177   2.066 -32.441  1.00  0.00    -0.504 OA
ATOM     29  H   UNL     1      -4.253   1.319 -33.067  1.00  0.00     0.293 HD
ENDBRANCH  25  28
ENDBRANCH  19  20
ENDBRANCH  16  18
ENDBRANCH  15  16
ENDBRANCH   3  15
BRANCH   4  30
ATOM     30  O   UNL     1      -9.259  -2.586 -28.040  1.00  0.00    -0.455 OA
BRANCH  30  31
ATOM     31  C   UNL     1      -8.359  -3.360 -28.693  1.00  0.00     0.331 C 
ATOM     32  O   UNL     1      -8.480  -4.547 -28.956  1.00  0.00    -0.247 OA
BRANCH  31  33
ATOM     33  C   UNL     1      -7.151  -2.597 -29.069  1.00  0.00     0.094 C 
ATOM     34  C   UNL     1      -6.069  -2.455 -28.288  1.00  0.00     0.016 C 
BRANCH  34  35
ATOM     35  C   UNL     1      -4.874  -1.705 -28.698  1.00  0.00    -0.021 A 
ATOM     36  C   UNL     1      -4.514  -1.696 -30.055  1.00  0.00     0.058 A 
ATOM     37  C   UNL     1      -4.057  -1.044 -27.765  1.00  0.00     0.012 A 
ATOM     38  C   UNL     1      -3.372  -1.010 -30.459  1.00  0.00     0.157 A 
ATOM     39  C   UNL     1      -2.911  -0.359 -28.180  1.00  0.00     0.051 A 
ATOM     40  C   UNL     1      -2.581  -0.346 -29.525  1.00  0.00     0.157 A 
BRANCH  38  41
ATOM     41  O   UNL     1      -2.983  -0.960 -31.769  1.00  0.00    -0.504 OA
ATOM     42  H   UNL     1      -2.058  -1.253 -31.826  1.00  0.00     0.293 HD
ENDBRANCH  38  41
BRANCH  40  43
ATOM     43  O   UNL     1      -1.462   0.322 -29.930  1.00  0.00    -0.504 OA
ATOM     44  H   UNL     1      -1.513   0.319 -30.907  1.00  0.00     0.293 HD
ENDBRANCH  40  43
ENDBRANCH  34  35
ENDBRANCH  31  33
ENDBRANCH  30  31
ENDBRANCH   4  30
TORSDOF 16
ENDMDL
MODEL 5
REMARK VINA RESULT:      -8.6      2.376      3.132
REMARK SMILES O=C(/C=C/c1ccc(O)c(O)c1)O[C@@H]1[C@H](O)C[C@@](O)(C(=O)O)C[C@H]1OC(=O)/C=C/c1ccc(O)c(O)c1
REMARK SMILES IDX 17 1 15 2 14 3 24 4 23 5 18 6 16 7 19 9 20 11 21 12 22 13
REMARK SMILES IDX 13 15 2 16 1 17 3 18 4 19 5 20 12 21 6 22 10 23 7 24 8 25
REMARK SMILES IDX 11 26 9 28 25 30 26 31 27 32 28 33 29 34 30 35 37 36 31 37
REMARK SMILES IDX 35 38 32 39 33 40 36 41 34 43
REMARK H PARENT 16 8 19 10 22 14 11 27 9 29 36 42 34 44
ROOT
ATOM      1  C   UNL     1     -10.642  -2.666 -22.722  1.00  0.00     0.083 C 
ATOM      2  C   UNL     1     -10.559  -2.044 -24.114  1.00  0.00     0.162 C 
ATOM      3  C   UNL     1      -9.137  -2.152 -24.690  1.00  0.00     0.246 C 
ATOM      4  C   UNL     1      -8.104  -1.502 -23.747  1.00  0.00     0.223 C 
ATOM      5  C   UNL     1      -8.198  -2.096 -22.337  1.00  0.00     0.097 C 
ATOM      6  C   UNL     1      -9.616  -2.034 -21.770  1.00  0.00     0.168 C 
ENDROOT
BRANCH   2   7
ATOM      7  O   UNL     1     -10.937  -0.663 -23.991  1.00  0.00    -0.389 OA
ATOM      8  H   UNL     1     -11.539  -0.474 -24.740  1.00  0.00     0.211 HD
ENDBRANCH   2   7
BRANCH   6   9
ATOM      9  O   UNL     1      -9.951  -0.656 -21.504  1.00  0.00    -0.378 OA
ATOM     10  H   UNL     1     -10.356  -0.625 -20.604  1.00  0.00     0.212 HD
ENDBRANCH   6   9
BRANCH   6  11
ATOM     11  C   UNL     1      -9.662  -2.772 -20.424  1.00  0.00     0.335 C 
ATOM     12  O   UNL     1     -10.153  -2.331 -19.397  1.00  0.00    -0.249 OA
BRANCH  11  13
ATOM     13  O   UNL     1      -9.089  -4.000 -20.510  1.00  0.00    -0.479 OA
ATOM     14  H   UNL     1      -9.288  -4.468 -19.661  1.00  0.00     0.296 HD
ENDBRANCH  11  13
ENDBRANCH   6  11
BRANCH   3  15
ATOM     15  O   UNL     1      -9.096  -1.461 -25.959  1.00  0.00    -0.452 OA
BRANCH  15  16
ATOM     16  C   UNL     1      -9.262  -2.233 -27.058  1.00  0.00     0.331 C 
ATOM     17  O   UNL     1      -9.500  -3.428 -27.069  1.00  0.00    -0.247 OA
BRANCH  16  18
ATOM     18  C   UNL     1      -9.114  -1.371 -28.246  1.00  0.00     0.094 C 
ATOM     19  C   UNL     1      -8.918  -1.925 -29.452  1.00  0.00     0.016 C 
BRANCH  19  20
ATOM     20  C   UNL     1      -8.764  -1.157 -30.696  1.00  0.00    -0.021 A 
ATOM     21  C   UNL     1      -9.882  -0.996 -31.529  1.00  0.00     0.058 A 
ATOM     22  C   UNL     1      -7.526  -0.628 -31.101  1.00  0.00     0.012 A 
ATOM     23  C   UNL     1      -9.758  -0.295 -32.725  1.00  0.00     0.157 A 
ATOM     24  C   UNL     1      -7.410   0.075 -32.304  1.00  0.00     0.051 A 
ATOM     25  C   UNL     1      -8.529   0.237 -33.105  1.00  0.00     0.157 A 
BRANCH  23  26
ATOM     26  O   UNL     1     -10.820  -0.103 -33.566  1.00  0.00    -0.504 OA
ATOM     27  H   UNL     1     -10.541   0.501 -34.277  1.00  0.00     0.293 HD
ENDBRANCH  23  26
BRANCH  25  28
ATOM     28  O   UNL     1      -8.415   0.922 -34.279  1.00  0.00    -0.504 OA
ATOM     29  H   UNL     1      -9.115   0.549 -34.851  1.00  0.00     0.293 HD
ENDBRANCH  25  28
ENDBRANCH  19  20
ENDBRANCH  16  18
ENDBRANCH  15  16
ENDBRANCH   3  15
BRANCH   4  30
ATOM     30  O   UNL     1      -6.769  -1.788 -24.227  1.00  0.00    -0.455 OA
BRANCH  30  31
ATOM     31  C   UNL     1      -6.015  -0.728 -24.605  1.00  0.00     0.331 C 
ATOM     32  O   UNL     1      -5.853   0.308 -23.977  1.00  0.00    -0.247 OA
BRANCH  31  33
ATOM     33  C   UNL     1      -5.380  -0.948 -25.921  1.00  0.00     0.094 C 
ATOM     34  C   UNL     1      -5.352  -0.043 -26.912  1.00  0.00     0.016 C 
BRANCH  34  35
ATOM     35  C   UNL     1      -4.695  -0.285 -28.204  1.00  0.00    -0.021 A 
ATOM     36  C   UNL     1      -4.645   0.758 -29.142  1.00  0.00     0.058 A 
ATOM     37  C   UNL     1      -4.166  -1.542 -28.543  1.00  0.00     0.012 A 
ATOM     38  C   UNL     1      -4.047   0.540 -30.380  1.00  0.00     0.157 A 
ATOM     39  C   UNL     1      -3.569  -1.751 -29.789  1.00  0.00     0.051 A 
ATOM     40  C   UNL     1      -3.513  -0.706 -30.696  1.00  0.00     0.157 A 
BRANCH  38  41
ATOM     41  O   UNL     1      -3.961   1.525 -31.326  1.00  0.00    -0.504 OA
ATOM     42  H   UNL     1      -4.385   2.326 -30.973  1.00  0.00     0.293 HD
ENDBRANCH  38  41
BRANCH  40  43
ATOM     43  O   UNL     1      -2.930  -0.910 -31.913  1.00  0.00    -0.504 OA
ATOM     44  H   UNL     1      -3.681  -1.051 -32.525  1.00  0.00     0.293 HD
ENDBRANCH  40  43
ENDBRANCH  34  35
ENDBRANCH  31  33
ENDBRANCH  30  31
ENDBRANCH   4  30
TORSDOF 16
ENDMDL
MODEL 6
REMARK VINA RESULT:      -8.5      1.830      3.607
REMARK SMILES O=C(/C=C/c1ccc(O)c(O)c1)O[C@@H]1[C@H](O)C[C@@](O)(C(=O)O)C[C@H]1OC(=O)/C=C/c1ccc(O)c(O)c1
REMARK SMILES IDX 17 1 15 2 14 3 24 4 23 5 18 6 16 7 19 9 20 11 21 12 22 13
REMARK SMILES IDX 13 15 2 16 1 17 3 18 4 19 5 20 12 21 6 22 10 23 7 24 8 25
REMARK SMILES IDX 11 26 9 28 25 30 26 31 27 32 28 33 29 34 30 35 37 36 31 37
REMARK SMILES IDX 35 38 32 39 33 40 36 41 34 43
REMARK H PARENT 16 8 19 10 22 14 11 27 9 29 36 42 34 44
ROOT
ATOM      1  C   UNL     1      -9.955  -1.655 -22.216  1.00  0.00     0.083 C 
ATOM      2  C   UNL     1      -9.649  -0.263 -22.762  1.00  0.00     0.162 C 
ATOM      3  C   UNL     1      -8.522  -0.308 -23.808  1.00  0.00     0.246 C 
ATOM      4  C   UNL     1      -7.247  -0.949 -23.224  1.00  0.00     0.223 C 
ATOM      5  C   UNL     1      -7.545  -2.335 -22.643  1.00  0.00     0.097 C 
ATOM      6  C   UNL     1      -8.694  -2.312 -21.634  1.00  0.00     0.168 C 
ENDROOT
BRANCH   2   7
ATOM      7  O   UNL     1      -9.257   0.559 -21.651  1.00  0.00    -0.389 OA
ATOM      8  H   UNL     1      -8.808  -0.034 -21.014  1.00  0.00     0.211 HD
ENDBRANCH   2   7
BRANCH   6   9
ATOM      9  O   UNL     1      -8.257  -1.613 -20.449  1.00  0.00    -0.378 OA
ATOM     10  H   UNL     1      -9.037  -1.116 -20.103  1.00  0.00     0.212 HD
ENDBRANCH   6   9
BRANCH   6  11
ATOM     11  C   UNL     1      -9.029  -3.748 -21.207  1.00  0.00     0.335 C 
ATOM     12  O   UNL     1      -8.963  -4.730 -21.929  1.00  0.00    -0.249 OA
BRANCH  11  13
ATOM     13  O   UNL     1      -9.407  -3.804 -19.904  1.00  0.00    -0.479 OA
ATOM     14  H   UNL     1     -10.148  -4.458 -19.849  1.00  0.00     0.296 HD
ENDBRANCH  11  13
ENDBRANCH   6  11
BRANCH   3  15
ATOM     15  O   UNL     1      -8.209   1.044 -24.214  1.00  0.00    -0.452 OA
BRANCH  15  16
ATOM     16  C   UNL     1      -8.708   1.432 -25.410  1.00  0.00     0.331 C 
ATOM     17  O   UNL     1      -9.029   2.565 -25.722  1.00  0.00    -0.247 OA
BRANCH  16  18
ATOM     18  C   UNL     1      -8.788   0.241 -26.277  1.00  0.00     0.094 C 
ATOM     19  C   UNL     1      -7.980   0.138 -27.344  1.00  0.00     0.016 C 
BRANCH  19  20
ATOM     20  C   UNL     1      -7.978  -1.007 -28.266  1.00  0.00    -0.021 A 
ATOM     21  C   UNL     1      -8.332  -2.271 -27.768  1.00  0.00     0.058 A 
ATOM     22  C   UNL     1      -7.582  -0.887 -29.609  1.00  0.00     0.012 A 
ATOM     23  C   UNL     1      -8.313  -3.377 -28.612  1.00  0.00     0.157 A 
ATOM     24  C   UNL     1      -7.565  -2.004 -30.451  1.00  0.00     0.051 A 
ATOM     25  C   UNL     1      -7.934  -3.239 -29.944  1.00  0.00     0.157 A 
BRANCH  23  26
ATOM     26  O   UNL     1      -8.658  -4.627 -28.177  1.00  0.00    -0.504 OA
ATOM     27  H   UNL     1      -7.938  -5.240 -28.407  1.00  0.00     0.293 HD
ENDBRANCH  23  26
BRANCH  25  28
ATOM     28  O   UNL     1      -7.917  -4.329 -30.766  1.00  0.00    -0.504 OA
ATOM     29  H   UNL     1      -8.675  -4.871 -30.472  1.00  0.00     0.293 HD
ENDBRANCH  25  28
ENDBRANCH  19  20
ENDBRANCH  16  18
ENDBRANCH  15  16
ENDBRANCH   3  15
BRANCH   4  30
ATOM     30  O   UNL     1      -6.279  -1.145 -24.282  1.00  0.00    -0.455 OA
BRANCH  30  31
ATOM     31  C   UNL     1      -5.284  -0.231 -24.377  1.00  0.00     0.331 C 
ATOM     32  O   UNL     1      -4.837   0.452 -23.467  1.00  0.00    -0.247 OA
BRANCH  31  33
ATOM     33  C   UNL     1      -4.766  -0.126 -25.757  1.00  0.00     0.094 C 
ATOM     34  C   UNL     1      -4.740  -1.139 -26.637  1.00  0.00     0.016 C 
BRANCH  34  35
ATOM     35  C   UNL     1      -4.235  -0.999 -28.011  1.00  0.00    -0.021 A 
ATOM     36  C   UNL     1      -4.251   0.270 -28.610  1.00  0.00     0.058 A 
ATOM     37  C   UNL     1      -3.788  -2.106 -28.753  1.00  0.00     0.012 A 
ATOM     38  C   UNL     1      -3.799   0.418 -29.918  1.00  0.00     0.157 A 
ATOM     39  C   UNL     1      -3.338  -1.948 -30.066  1.00  0.00     0.051 A 
ATOM     40  C   UNL     1      -3.345  -0.685 -30.636  1.00  0.00     0.157 A 
BRANCH  38  41
ATOM     41  O   UNL     1      -3.782   1.633 -30.546  1.00  0.00    -0.504 OA
ATOM     42  H   UNL     1      -2.858   1.925 -30.624  1.00  0.00     0.293 HD
ENDBRANCH  38  41
BRANCH  40  43
ATOM     43  O   UNL     1      -2.904  -0.531 -31.918  1.00  0.00    -0.504 OA
ATOM     44  H   UNL     1      -2.443  -1.370 -32.123  1.00  0.00     0.293 HD
ENDBRANCH  40  43
ENDBRANCH  34  35
ENDBRANCH  31  33
ENDBRANCH  30  31
ENDBRANCH   4  30
TORSDOF 16
ENDMDL
MODEL 7
REMARK VINA RESULT:      -8.4      2.465      3.295
REMARK SMILES O=C(/C=C/c1ccc(O)c(O)c1)O[C@@H]1[C@H](O)C[C@@](O)(C(=O)O)C[C@H]1OC(=O)/C=C/c1ccc(O)c(O)c1
REMARK SMILES IDX 17 1 15 2 14 3 24 4 23 5 18 6 16 7 19 9 20 11 21 12 22 13
REMARK SMILES IDX 13 15 2 16 1 17 3 18 4 19 5 20 12 21 6 22 10 23 7 24 8 25
REMARK SMILES IDX 11 26 9 28 25 30 26 31 27 32 28 33 29 34 30 35 37 36 31 37
REMARK SMILES IDX 35 38 32 39 33 40 36 41 34 43
REMARK H PARENT 16 8 19 10 22 14 11 27 9 29 36 42 34 44
ROOT
ATOM      1  C   UNL     1     -10.583  -3.230 -22.726  1.00  0.00     0.083 C 
ATOM      2  C   UNL     1     -11.000  -3.127 -24.191  1.00  0.00     0.162 C 
ATOM      3  C   UNL     1      -9.811  -2.735 -25.084  1.00  0.00     0.246 C 
ATOM      4  C   UNL     1      -9.172  -1.413 -24.611  1.00  0.00     0.223 C 
ATOM      5  C   UNL     1      -8.777  -1.492 -23.133  1.00  0.00     0.097 C 
ATOM      6  C   UNL     1      -9.940  -1.924 -22.239  1.00  0.00     0.168 C 
ENDROOT
BRANCH   2   7
ATOM      7  O   UNL     1     -12.030  -2.129 -24.276  1.00  0.00    -0.389 OA
ATOM      8  H   UNL     1     -11.898  -1.531 -23.512  1.00  0.00     0.211 HD
ENDBRANCH   2   7
BRANCH   6   9
ATOM      9  O   UNL     1     -10.916  -0.861 -22.200  1.00  0.00    -0.378 OA
ATOM     10  H   UNL     1     -11.559  -1.032 -22.928  1.00  0.00     0.212 HD
ENDBRANCH   6   9
BRANCH   6  11
ATOM     11  C   UNL     1      -9.436  -2.119 -20.802  1.00  0.00     0.335 C 
ATOM     12  O   UNL     1     -10.147  -2.307 -19.827  1.00  0.00    -0.249 OA
BRANCH  11  13
ATOM     13  O   UNL     1      -8.081  -2.067 -20.738  1.00  0.00    -0.479 OA
ATOM     14  H   UNL     1      -7.850  -1.264 -20.208  1.00  0.00     0.296 HD
ENDBRANCH  11  13
ENDBRANCH   6  11
BRANCH   3  15
ATOM     15  O   UNL     1     -10.285  -2.555 -26.438  1.00  0.00    -0.452 OA
BRANCH  15  16
ATOM     16  C   UNL     1      -9.917  -3.509 -27.324  1.00  0.00     0.331 C 
ATOM     17  O   UNL     1      -9.976  -4.713 -27.151  1.00  0.00    -0.247 OA
BRANCH  16  18
ATOM     18  C   UNL     1      -9.437  -2.834 -28.545  1.00  0.00     0.094 C 
ATOM     19  C   UNL     1      -9.839  -1.583 -28.817  1.00  0.00     0.016 C 
BRANCH  19  20
ATOM     20  C   UNL     1      -9.416  -0.822 -30.001  1.00  0.00    -0.021 A 
ATOM     21  C   UNL     1     -10.385  -0.097 -30.716  1.00  0.00     0.058 A 
ATOM     22  C   UNL     1      -8.091  -0.840 -30.470  1.00  0.00     0.012 A 
ATOM     23  C   UNL     1     -10.016   0.611 -31.856  1.00  0.00     0.157 A 
ATOM     24  C   UNL     1      -7.730  -0.126 -31.617  1.00  0.00     0.051 A 
ATOM     25  C   UNL     1      -8.696   0.596 -32.298  1.00  0.00     0.157 A 
BRANCH  23  26
ATOM     26  O   UNL     1     -10.920   1.339 -32.580  1.00  0.00    -0.504 OA
ATOM     27  H   UNL     1     -11.431   1.891 -31.964  1.00  0.00     0.293 HD
ENDBRANCH  23  26
BRANCH  25  28
ATOM     28  O   UNL     1      -8.344   1.292 -33.418  1.00  0.00    -0.504 OA
ATOM     29  H   UNL     1      -8.956   0.973 -34.109  1.00  0.00     0.293 HD
ENDBRANCH  25  28
ENDBRANCH  19  20
ENDBRANCH  16  18
ENDBRANCH  15  16
ENDBRANCH   3  15
BRANCH   4  30
ATOM     30  O   UNL     1      -7.952  -1.176 -25.353  1.00  0.00    -0.455 OA
BRANCH  30  31
ATOM     31  C   UNL     1      -7.777   0.066 -25.862  1.00  0.00     0.331 C 
ATOM     32  O   UNL     1      -8.248   1.104 -25.420  1.00  0.00    -0.247 OA
BRANCH  31  33
ATOM     33  C   UNL     1      -6.926   0.049 -27.069  1.00  0.00     0.094 C 
ATOM     34  C   UNL     1      -5.786  -0.651 -27.184  1.00  0.00     0.016 C 
BRANCH  34  35
ATOM     35  C   UNL     1      -4.969  -0.663 -28.406  1.00  0.00    -0.021 A 
ATOM     36  C   UNL     1      -4.910   0.498 -29.192  1.00  0.00     0.058 A 
ATOM     37  C   UNL     1      -4.291  -1.818 -28.833  1.00  0.00     0.012 A 
ATOM     38  C   UNL     1      -4.160   0.498 -30.364  1.00  0.00     0.157 A 
ATOM     39  C   UNL     1      -3.542  -1.809 -30.013  1.00  0.00     0.051 A 
ATOM     40  C   UNL     1      -3.481  -0.648 -30.767  1.00  0.00     0.157 A 
BRANCH  38  41
ATOM     41  O   UNL     1      -4.061   1.606 -31.159  1.00  0.00    -0.504 OA
ATOM     42  H   UNL     1      -4.326   2.383 -30.638  1.00  0.00     0.293 HD
ENDBRANCH  38  41
BRANCH  40  43
ATOM     43  O   UNL     1      -2.750  -0.640 -31.918  1.00  0.00    -0.504 OA
ATOM     44  H   UNL     1      -3.113   0.108 -32.435  1.00  0.00     0.293 HD
ENDBRANCH  40  43
ENDBRANCH  34  35
ENDBRANCH  31  33
ENDBRANCH  30  31
ENDBRANCH   4  30
TORSDOF 16
ENDMDL
MODEL 8
REMARK VINA RESULT:      -8.3      2.257      4.439
REMARK SMILES O=C(/C=C/c1ccc(O)c(O)c1)O[C@@H]1[C@H](O)C[C@@](O)(C(=O)O)C[C@H]1OC(=O)/C=C/c1ccc(O)c(O)c1
REMARK SMILES IDX 17 1 15 2 14 3 24 4 23 5 18 6 16 7 19 9 20 11 21 12 22 13
REMARK SMILES IDX 13 15 2 16 1 17 3 18 4 19 5 20 12 21 6 22 10 23 7 24 8 25
REMARK SMILES IDX 11 26 9 28 25 30 26 31 27 32 28 33 29 34 30 35 37 36 31 37
REMARK SMILES IDX 35 38 32 39 33 40 36 41 34 43
REMARK H PARENT 16 8 19 10 22 14 11 27 9 29 36 42 34 44
ROOT
ATOM      1  C   UNL     1      -7.972  -1.558 -21.766  1.00  0.00     0.083 C 
ATOM      2  C   UNL     1      -7.367  -1.275 -23.138  1.00  0.00     0.162 C 
ATOM      3  C   UNL     1      -8.436  -0.785 -24.130  1.00  0.00     0.246 C 
ATOM      4  C   UNL     1      -9.591  -1.799 -24.249  1.00  0.00     0.223 C 
ATOM      5  C   UNL     1     -10.188  -2.115 -22.874  1.00  0.00     0.097 C 
ATOM      6  C   UNL     1      -9.129  -2.563 -21.865  1.00  0.00     0.168 C 
ENDROOT
BRANCH   2   7
ATOM      7  O   UNL     1      -6.782  -2.500 -23.611  1.00  0.00    -0.389 OA
ATOM      8  H   UNL     1      -7.495  -3.171 -23.591  1.00  0.00     0.211 HD
ENDBRANCH   2   7
BRANCH   6   9
ATOM      9  O   UNL     1      -8.640  -3.864 -22.252  1.00  0.00    -0.378 OA
ATOM     10  H   UNL     1      -7.672  -3.771 -22.421  1.00  0.00     0.212 HD
ENDBRANCH   6   9
BRANCH   6  11
ATOM     11  C   UNL     1      -9.775  -2.722 -20.482  1.00  0.00     0.335 C 
ATOM     12  O   UNL     1     -10.532  -1.917 -19.962  1.00  0.00    -0.249 OA
BRANCH  11  13
ATOM     13  O   UNL     1      -9.407  -3.889 -19.892  1.00  0.00    -0.479 OA
ATOM     14  H   UNL     1      -9.449  -4.588 -20.591  1.00  0.00     0.296 HD
ENDBRANCH  11  13
ENDBRANCH   6  11
BRANCH   3  15
ATOM     15  O   UNL     1      -7.826  -0.631 -25.432  1.00  0.00    -0.452 OA
BRANCH  15  16
ATOM     16  C   UNL     1      -7.763   0.634 -25.909  1.00  0.00     0.331 C 
ATOM     17  O   UNL     1      -8.278   1.618 -25.409  1.00  0.00    -0.247 OA
BRANCH  16  18
ATOM     18  C   UNL     1      -6.952   0.615 -27.141  1.00  0.00     0.094 C 
ATOM     19  C   UNL     1      -5.959  -0.278 -27.271  1.00  0.00     0.016 C 
BRANCH  19  20
ATOM     20  C   UNL     1      -5.097  -0.382 -28.458  1.00  0.00    -0.021 A 
ATOM     21  C   UNL     1      -5.036   0.708 -29.342  1.00  0.00     0.058 A 
ATOM     22  C   UNL     1      -4.380  -1.552 -28.764  1.00  0.00     0.012 A 
ATOM     23  C   UNL     1      -4.249   0.626 -30.486  1.00  0.00     0.157 A 
ATOM     24  C   UNL     1      -3.592  -1.626 -29.916  1.00  0.00     0.051 A 
ATOM     25  C   UNL     1      -3.532  -0.534 -30.766  1.00  0.00     0.157 A 
BRANCH  23  26
ATOM     26  O   UNL     1      -4.148   1.663 -31.373  1.00  0.00    -0.504 OA
ATOM     27  H   UNL     1      -4.148   2.496 -30.869  1.00  0.00     0.293 HD
ENDBRANCH  23  26
BRANCH  25  28
ATOM     28  O   UNL     1      -2.763  -0.607 -31.892  1.00  0.00    -0.504 OA
ATOM     29  H   UNL     1      -1.948  -0.117 -31.665  1.00  0.00     0.293 HD
ENDBRANCH  25  28
ENDBRANCH  19  20
ENDBRANCH  16  18
ENDBRANCH  15  16
ENDBRANCH   3  15
BRANCH   4  30
ATOM     30  O   UNL     1     -10.658  -1.221 -25.039  1.00  0.00    -0.455 OA
BRANCH  30  31
ATOM     31  C   UNL     1     -11.071  -1.928 -26.118  1.00  0.00     0.331 C 
ATOM     32  O   UNL     1     -11.732  -2.955 -26.101  1.00  0.00    -0.247 OA
BRANCH  31  33
ATOM     33  C   UNL     1     -10.620  -1.312 -27.382  1.00  0.00     0.094 C 
ATOM     34  C   UNL     1      -9.688  -1.839 -28.193  1.00  0.00     0.016 C 
BRANCH  34  35
ATOM     35  C   UNL     1      -9.272  -1.211 -29.455  1.00  0.00    -0.021 A 
ATOM     36  C   UNL     1     -10.117  -0.260 -30.048  1.00  0.00     0.058 A 
ATOM     37  C   UNL     1      -8.082  -1.576 -30.107  1.00  0.00     0.012 A 
ATOM     38  C   UNL     1      -9.751   0.328 -31.255  1.00  0.00     0.157 A 
ATOM     39  C   UNL     1      -7.724  -0.981 -31.320  1.00  0.00     0.051 A 
ATOM     40  C   UNL     1      -8.561  -0.032 -31.882  1.00  0.00     0.157 A 
BRANCH  38  41
ATOM     41  O   UNL     1     -10.532   1.268 -31.869  1.00  0.00    -0.504 OA
ATOM     42  H   UNL     1      -9.962   2.001 -32.156  1.00  0.00     0.293 HD
ENDBRANCH  38  41
BRANCH  40  43
ATOM     43  O   UNL     1      -8.211   0.548 -33.066  1.00  0.00    -0.504 OA
ATOM     44  H   UNL     1      -9.050   0.611 -33.567  1.00  0.00     0.293 HD
ENDBRANCH  40  43
ENDBRANCH  34  35
ENDBRANCH  31  33
ENDBRANCH  30  31
ENDBRANCH   4  30
TORSDOF 16
ENDMDL
MODEL 9
REMARK VINA RESULT:      -8.0      2.514      5.706
REMARK SMILES O=C(/C=C/c1ccc(O)c(O)c1)O[C@@H]1[C@H](O)C[C@@](O)(C(=O)O)C[C@H]1OC(=O)/C=C/c1ccc(O)c(O)c1
REMARK SMILES IDX 17 1 15 2 14 3 24 4 23 5 18 6 16 7 19 9 20 11 21 12 22 13
REMARK SMILES IDX 13 15 2 16 1 17 3 18 4 19 5 20 12 21 6 22 10 23 7 24 8 25
REMARK SMILES IDX 11 26 9 28 25 30 26 31 27 32 28 33 29 34 30 35 37 36 31 37
REMARK SMILES IDX 35 38 32 39 33 40 36 41 34 43
REMARK H PARENT 16 8 19 10 22 14 11 27 9 29 36 42 34 44
ROOT
ATOM      1  C   UNL     1      -8.279  -2.045 -20.776  1.00  0.00     0.083 C 
ATOM      2  C   UNL     1      -7.377  -2.330 -21.973  1.00  0.00     0.162 C 
ATOM      3  C   UNL     1      -7.356  -1.144 -22.953  1.00  0.00     0.246 C 
ATOM      4  C   UNL     1      -8.781  -0.787 -23.424  1.00  0.00     0.223 C 
ATOM      5  C   UNL     1      -9.705  -0.528 -22.230  1.00  0.00     0.097 C 
ATOM      6  C   UNL     1      -9.702  -1.681 -21.227  1.00  0.00     0.168 C 
ENDROOT
BRANCH   2   7
ATOM      7  O   UNL     1      -7.891  -3.501 -22.629  1.00  0.00    -0.389 OA
ATOM      8  H   UNL     1      -8.273  -3.196 -23.478  1.00  0.00     0.211 HD
ENDBRANCH   2   7
BRANCH   6   9
ATOM      9  O   UNL     1     -10.351  -2.822 -21.827  1.00  0.00    -0.378 OA
ATOM     10  H   UNL     1     -11.122  -2.479 -22.340  1.00  0.00     0.212 HD
ENDBRANCH   6   9
BRANCH   6  11
ATOM     11  C   UNL     1     -10.534  -1.292 -19.996  1.00  0.00     0.335 C 
ATOM     12  O   UNL     1     -10.665  -1.975 -18.992  1.00  0.00    -0.249 OA
BRANCH  11  13
ATOM     13  O   UNL     1     -11.111  -0.073 -20.151  1.00  0.00    -0.479 OA
ATOM     14  H   UNL     1     -11.106   0.124 -21.120  1.00  0.00     0.296 HD
ENDBRANCH  11  13
ENDBRANCH   6  11
BRANCH   3  15
ATOM     15  O   UNL     1      -6.570  -1.509 -24.109  1.00  0.00    -0.452 OA
BRANCH  15  16
ATOM     16  C   UNL     1      -5.530  -0.693 -24.399  1.00  0.00     0.331 C 
ATOM     17  O   UNL     1      -5.007   0.104 -23.640  1.00  0.00    -0.247 OA
BRANCH  16  18
ATOM     18  C   UNL     1      -5.134  -0.941 -25.798  1.00  0.00     0.094 C 
ATOM     19  C   UNL     1      -4.587   0.048 -26.522  1.00  0.00     0.016 C 
BRANCH  19  20
ATOM     20  C   UNL     1      -4.154  -0.098 -27.919  1.00  0.00    -0.021 A 
ATOM     21  C   UNL     1      -5.133  -0.274 -28.910  1.00  0.00     0.058 A 
ATOM     22  C   UNL     1      -2.797  -0.120 -28.285  1.00  0.00     0.012 A 
ATOM     23  C   UNL     1      -4.749  -0.441 -30.238  1.00  0.00     0.157 A 
ATOM     24  C   UNL     1      -2.421  -0.288 -29.621  1.00  0.00     0.051 A 
ATOM     25  C   UNL     1      -3.402  -0.444 -30.587  1.00  0.00     0.157 A 
BRANCH  23  26
ATOM     26  O   UNL     1      -5.665  -0.607 -31.241  1.00  0.00    -0.504 OA
ATOM     27  H   UNL     1      -5.665  -1.544 -31.502  1.00  0.00     0.293 HD
ENDBRANCH  23  26
BRANCH  25  28
ATOM     28  O   UNL     1      -3.035  -0.609 -31.891  1.00  0.00    -0.504 OA
ATOM     29  H   UNL     1      -2.718   0.272 -32.171  1.00  0.00     0.293 HD
ENDBRANCH  25  28
ENDBRANCH  19  20
ENDBRANCH  16  18
ENDBRANCH  15  16
ENDBRANCH   3  15
BRANCH   4  30
ATOM     30  O   UNL     1      -8.740   0.442 -24.189  1.00  0.00    -0.455 OA
BRANCH  30  31
ATOM     31  C   UNL     1      -9.032   0.351 -25.508  1.00  0.00     0.331 C 
ATOM     32  O   UNL     1      -8.781   1.185 -26.365  1.00  0.00    -0.247 OA
BRANCH  31  33
ATOM     33  C   UNL     1      -9.726  -0.914 -25.830  1.00  0.00     0.094 C 
ATOM     34  C   UNL     1      -9.347  -1.762 -26.799  1.00  0.00     0.016 C 
BRANCH  34  35
ATOM     35  C   UNL     1     -10.047  -3.022 -27.084  1.00  0.00    -0.021 A 
ATOM     36  C   UNL     1     -11.168  -3.363 -26.310  1.00  0.00     0.058 A 
ATOM     37  C   UNL     1      -9.594  -3.915 -28.070  1.00  0.00     0.012 A 
ATOM     38  C   UNL     1     -11.829  -4.564 -26.550  1.00  0.00     0.157 A 
ATOM     39  C   UNL     1     -10.264  -5.120 -28.302  1.00  0.00     0.051 A 
ATOM     40  C   UNL     1     -11.378  -5.431 -27.541  1.00  0.00     0.157 A 
BRANCH  38  41
ATOM     41  O   UNL     1     -12.933  -4.938 -25.834  1.00  0.00    -0.504 OA
ATOM     42  H   UNL     1     -12.746  -4.800 -24.889  1.00  0.00     0.293 HD
ENDBRANCH  38  41
BRANCH  40  43
ATOM     43  O   UNL     1     -12.032  -6.607 -27.768  1.00  0.00    -0.504 OA
ATOM     44  H   UNL     1     -11.755  -6.873 -28.668  1.00  0.00     0.293 HD
ENDBRANCH  40  43
ENDBRANCH  34  35
ENDBRANCH  31  33
ENDBRANCH  30  31
ENDBRANCH   4  30
TORSDOF 16
ENDMDL
MODEL 10
REMARK VINA RESULT:      -8.0      3.264      4.396
REMARK SMILES O=C(/C=C/c1ccc(O)c(O)c1)O[C@@H]1[C@H](O)C[C@@](O)(C(=O)O)C[C@H]1OC(=O)/C=C/c1ccc(O)c(O)c1
REMARK SMILES IDX 17 1 15 2 14 3 24 4 23 5 18 6 16 7 19 9 20 11 21 12 22 13
REMARK SMILES IDX 13 15 2 16 1 17 3 18 4 19 5 20 12 21 6 22 10 23 7 24 8 25
REMARK SMILES IDX 11 26 9 28 25 30 26 31 27 32 28 33 29 34 30 35 37 36 31 37
REMARK SMILES IDX 35 38 32 39 33 40 36 41 34 43
REMARK H PARENT 16 8 19 10 22 14 11 27 9 29 36 42 34 44
ROOT
ATOM      1  C   UNL     1     -10.554  -5.346 -24.972  1.00  0.00     0.083 C 
ATOM      2  C   UNL     1     -10.959  -5.536 -26.431  1.00  0.00     0.162 C 
ATOM      3  C   UNL     1     -10.288  -4.492 -27.339  1.00  0.00     0.246 C 
ATOM      4  C   UNL     1     -10.614  -3.058 -26.872  1.00  0.00     0.223 C 
ATOM      5  C   UNL     1     -10.240  -2.862 -25.399  1.00  0.00     0.097 C 
ATOM      6  C   UNL     1     -10.866  -3.921 -24.491  1.00  0.00     0.168 C 
ENDROOT
BRANCH   2   7
ATOM      7  O   UNL     1     -12.388  -5.404 -26.501  1.00  0.00    -0.389 OA
ATOM      8  H   UNL     1     -12.666  -5.854 -27.325  1.00  0.00     0.211 HD
ENDBRANCH   2   7
BRANCH   6   9
ATOM      9  O   UNL     1     -12.292  -3.703 -24.438  1.00  0.00    -0.378 OA
ATOM     10  H   UNL     1     -12.453  -2.772 -24.722  1.00  0.00     0.212 HD
ENDBRANCH   6   9
BRANCH   6  11
ATOM     11  C   UNL     1     -10.336  -3.747 -23.061  1.00  0.00     0.335 C 
ATOM     12  O   UNL     1     -10.628  -2.829 -22.309  1.00  0.00    -0.249 OA
BRANCH  11  13
ATOM     13  O   UNL     1      -9.494  -4.755 -22.716  1.00  0.00    -0.479 OA
ATOM     14  H   UNL     1      -8.924  -4.414 -21.983  1.00  0.00     0.296 HD
ENDBRANCH  11  13
ENDBRANCH   6  11
BRANCH   3  15
ATOM     15  O   UNL     1     -10.784  -4.658 -28.686  1.00  0.00    -0.452 OA
BRANCH  15  16
ATOM     16  C   UNL     1      -9.849  -4.882 -29.638  1.00  0.00     0.331 C 
ATOM     17  O   UNL     1      -9.249  -5.926 -29.826  1.00  0.00    -0.247 OA
BRANCH  16  18
ATOM     18  C   UNL     1      -9.685  -3.639 -30.416  1.00  0.00     0.094 C 
ATOM     19  C   UNL     1      -8.493  -3.023 -30.446  1.00  0.00     0.016 C 
BRANCH  19  20
ATOM     20  C   UNL     1      -8.226  -1.786 -31.194  1.00  0.00    -0.021 A 
ATOM     21  C   UNL     1      -9.150  -1.378 -32.169  1.00  0.00     0.058 A 
ATOM     22  C   UNL     1      -7.055  -1.033 -31.002  1.00  0.00     0.012 A 
ATOM     23  C   UNL     1      -8.908  -0.224 -32.910  1.00  0.00     0.157 A 
ATOM     24  C   UNL     1      -6.820   0.124 -31.751  1.00  0.00     0.051 A 
ATOM     25  C   UNL     1      -7.751   0.520 -32.697  1.00  0.00     0.157 A 
BRANCH  23  26
ATOM     26  O   UNL     1      -9.782   0.221 -33.864  1.00  0.00    -0.504 OA
ATOM     27  H   UNL     1     -10.086   1.109 -33.609  1.00  0.00     0.293 HD
ENDBRANCH  23  26
BRANCH  25  28
ATOM     28  O   UNL     1      -7.522   1.649 -33.428  1.00  0.00    -0.504 OA
ATOM     29  H   UNL     1      -6.998   2.224 -32.835  1.00  0.00     0.293 HD
ENDBRANCH  25  28
ENDBRANCH  19  20
ENDBRANCH  16  18
ENDBRANCH  15  16
ENDBRANCH   3  15
BRANCH   4  30
ATOM     30  O   UNL     1      -9.819  -2.114 -27.629  1.00  0.00    -0.455 OA
BRANCH  30  31
ATOM     31  C   UNL     1      -9.474  -0.964 -27.003  1.00  0.00     0.331 C 
ATOM     32  O   UNL     1     -10.189  -0.295 -26.271  1.00  0.00    -0.247 OA
BRANCH  31  33
ATOM     33  C   UNL     1      -8.083  -0.569 -27.306  1.00  0.00     0.094 C 
ATOM     34  C   UNL     1      -7.049  -1.423 -27.373  1.00  0.00     0.016 C 
BRANCH  34  35
ATOM     35  C   UNL     1      -5.679  -1.003 -27.696  1.00  0.00    -0.021 A 
ATOM     36  C   UNL     1      -5.328   0.346 -27.527  1.00  0.00     0.058 A 
ATOM     37  C   UNL     1      -4.731  -1.901 -28.216  1.00  0.00     0.012 A 
ATOM     38  C   UNL     1      -4.041   0.767 -27.850  1.00  0.00     0.157 A 
ATOM     39  C   UNL     1      -3.442  -1.468 -28.539  1.00  0.00     0.051 A 
ATOM     40  C   UNL     1      -3.108  -0.137 -28.350  1.00  0.00     0.157 A 
BRANCH  38  41
ATOM     41  O   UNL     1      -3.644   2.066 -27.694  1.00  0.00    -0.504 OA
ATOM     42  H   UNL     1      -2.680   2.080 -27.569  1.00  0.00     0.293 HD
ENDBRANCH  38  41
BRANCH  40  43
ATOM     43  O   UNL     1      -1.849   0.285 -28.665  1.00  0.00    -0.504 OA
ATOM     44  H   UNL     1      -1.863   1.249 -28.498  1.00  0.00     0.293 HD
ENDBRANCH  40  43
ENDBRANCH  34  35
ENDBRANCH  31  33
ENDBRANCH  30  31
ENDBRANCH   4  30
TORSDOF 16
ENDMDL
