MODEL 1
REMARK VINA RESULT:      -6.2      0.000      0.000
REMARK SMILES Cc1ccc(C(C)C)cc1
REMARK SMILES IDX 1 1 2 2 3 3 4 4 5 5 9 6 10 7 6 8 7 9 8 10
REMARK H PARENT
ROOT
ATOM      1  C   UNL     1       6.074  -3.294 -19.705  1.00  0.00     0.044 C 
ATOM      2  C   UNL     1       5.607  -2.846 -21.058  1.00  0.00    -0.051 A 
ATOM      3  C   UNL     1       6.200  -1.756 -21.701  1.00  0.00     0.004 A 
ATOM      4  C   UNL     1       5.757  -1.351 -22.964  1.00  0.00     0.004 A 
ATOM      5  C   UNL     1       4.712  -2.028 -23.609  1.00  0.00    -0.045 A 
ATOM      6  C   UNL     1       4.120  -3.118 -22.958  1.00  0.00     0.004 A 
ATOM      7  C   UNL     1       4.564  -3.524 -21.696  1.00  0.00     0.004 A 
ENDROOT
BRANCH   5   8
ATOM      8  C   UNL     1       4.248  -1.567 -24.980  1.00  0.00     0.013 C 
ATOM      9  C   UNL     1       2.837  -0.974 -24.929  1.00  0.00     0.012 C 
ATOM     10  C   UNL     1       5.234  -0.576 -25.602  1.00  0.00     0.012 C 
ENDBRANCH   5   8
TORSDOF 1
ENDMDL
MODEL 2
REMARK VINA RESULT:      -6.0      3.495      5.451
REMARK SMILES Cc1ccc(C(C)C)cc1
REMARK SMILES IDX 1 1 2 2 3 3 4 4 5 5 9 6 10 7 6 8 7 9 8 10
REMARK H PARENT
ROOT
ATOM      1  C   UNL     1       8.395   1.053 -15.914  1.00  0.00     0.044 C 
ATOM      2  C   UNL     1       7.869   0.143 -16.984  1.00  0.00    -0.051 A 
ATOM      3  C   UNL     1       8.522   0.023 -18.214  1.00  0.00     0.004 A 
ATOM      4  C   UNL     1       8.023  -0.831 -19.202  1.00  0.00     0.004 A 
ATOM      5  C   UNL     1       6.861  -1.583 -18.979  1.00  0.00    -0.045 A 
ATOM      6  C   UNL     1       6.209  -1.457 -17.745  1.00  0.00     0.004 A 
ATOM      7  C   UNL     1       6.709  -0.604 -16.757  1.00  0.00     0.004 A 
ENDROOT
BRANCH   5   8
ATOM      8  C   UNL     1       6.338  -2.503 -20.068  1.00  0.00     0.013 C 
ATOM      9  C   UNL     1       5.656  -1.718 -21.192  1.00  0.00     0.012 C 
ATOM     10  C   UNL     1       7.446  -3.400 -20.625  1.00  0.00     0.012 C 
ENDBRANCH   5   8
TORSDOF 1
ENDMDL
MODEL 3
REMARK VINA RESULT:      -6.0      4.589      7.610
REMARK SMILES Cc1ccc(C(C)C)cc1
REMARK SMILES IDX 1 1 2 2 3 3 4 4 5 5 9 6 10 7 6 8 7 9 8 10
REMARK H PARENT
ROOT
ATOM      1  C   UNL     1       6.121  -1.822 -20.257  1.00  0.00     0.044 C 
ATOM      2  C   UNL     1       6.844  -1.359 -19.028  1.00  0.00    -0.051 A 
ATOM      3  C   UNL     1       8.162  -0.899 -19.097  1.00  0.00     0.004 A 
ATOM      4  C   UNL     1       8.823  -0.467 -17.943  1.00  0.00     0.004 A 
ATOM      5  C   UNL     1       8.180  -0.487 -16.697  1.00  0.00    -0.045 A 
ATOM      6  C   UNL     1       6.860  -0.951 -16.634  1.00  0.00     0.004 A 
ATOM      7  C   UNL     1       6.198  -1.382 -17.788  1.00  0.00     0.004 A 
ENDROOT
BRANCH   5   8
ATOM      8  C   UNL     1       8.921  -0.014 -15.459  1.00  0.00     0.013 C 
ATOM      9  C   UNL     1      10.223  -0.791 -15.248  1.00  0.00     0.012 C 
ATOM     10  C   UNL     1       9.187   1.493 -15.505  1.00  0.00     0.012 C 
ENDBRANCH   5   8
TORSDOF 1
ENDMDL
MODEL 4
REMARK VINA RESULT:      -5.6      9.775     10.744
REMARK SMILES Cc1ccc(C(C)C)cc1
REMARK SMILES IDX 1 1 2 2 3 3 4 4 5 5 9 6 10 7 6 8 7 9 8 10
REMARK H PARENT
ROOT
ATOM      1  C   UNL     1      -1.730   0.020 -29.943  1.00  0.00     0.044 C 
ATOM      2  C   UNL     1      -2.665  -0.221 -28.796  1.00  0.00    -0.051 A 
ATOM      3  C   UNL     1      -2.784   0.705 -27.756  1.00  0.00     0.004 A 
ATOM      4  C   UNL     1      -3.662   0.470 -26.694  1.00  0.00     0.004 A 
ATOM      5  C   UNL     1      -4.441  -0.696 -26.651  1.00  0.00    -0.045 A 
ATOM      6  C   UNL     1      -4.316  -1.621 -27.696  1.00  0.00     0.004 A 
ATOM      7  C   UNL     1      -3.438  -1.385 -28.758  1.00  0.00     0.004 A 
ENDROOT
BRANCH   5   8
ATOM      8  C   UNL     1      -5.386  -0.929 -25.486  1.00  0.00     0.013 C 
ATOM      9  C   UNL     1      -5.091   0.018 -24.319  1.00  0.00     0.012 C 
ATOM     10  C   UNL     1      -6.850  -0.818 -25.921  1.00  0.00     0.012 C 
ENDBRANCH   5   8
TORSDOF 1
ENDMDL
MODEL 5
REMARK VINA RESULT:      -5.4      9.808     10.502
REMARK SMILES Cc1ccc(C(C)C)cc1
REMARK SMILES IDX 1 1 2 2 3 3 4 4 5 5 9 6 10 7 6 8 7 9 8 10
REMARK H PARENT
ROOT
ATOM      1  C   UNL     1      -6.098  -0.904 -24.305  1.00  0.00     0.044 C 
ATOM      2  C   UNL     1      -5.281  -0.904 -25.561  1.00  0.00    -0.051 A 
ATOM      3  C   UNL     1      -5.344  -1.971 -26.463  1.00  0.00     0.004 A 
ATOM      4  C   UNL     1      -4.578  -1.957 -27.633  1.00  0.00     0.004 A 
ATOM      5  C   UNL     1      -3.735  -0.876 -27.926  1.00  0.00    -0.045 A 
ATOM      6  C   UNL     1      -3.674   0.190 -27.017  1.00  0.00     0.004 A 
ATOM      7  C   UNL     1      -4.440   0.176 -25.848  1.00  0.00     0.004 A 
ENDROOT
BRANCH   5   8
ATOM      8  C   UNL     1      -2.913  -0.885 -29.202  1.00  0.00     0.013 C 
ATOM      9  C   UNL     1      -3.802  -0.854 -30.448  1.00  0.00     0.012 C 
ATOM     10  C   UNL     1      -1.901   0.264 -29.226  1.00  0.00     0.012 C 
ENDBRANCH   5   8
TORSDOF 1
ENDMDL
MODEL 6
REMARK VINA RESULT:      -5.3      5.463      7.854
REMARK SMILES Cc1ccc(C(C)C)cc1
REMARK SMILES IDX 1 1 2 2 3 3 4 4 5 5 9 6 10 7 6 8 7 9 8 10
REMARK H PARENT
ROOT
ATOM      1  C   UNL     1      11.586   0.675 -14.801  1.00  0.00     0.044 C 
ATOM      2  C   UNL     1      10.345   0.294 -15.551  1.00  0.00    -0.051 A 
ATOM      3  C   UNL     1       9.751   1.176 -16.458  1.00  0.00     0.004 A 
ATOM      4  C   UNL     1       8.596   0.807 -17.153  1.00  0.00     0.004 A 
ATOM      5  C   UNL     1       8.011  -0.453 -16.957  1.00  0.00    -0.045 A 
ATOM      6  C   UNL     1       8.611  -1.332 -16.046  1.00  0.00     0.004 A 
ATOM      7  C   UNL     1       9.766  -0.963 -15.351  1.00  0.00     0.004 A 
ENDROOT
BRANCH   5   8
ATOM      8  C   UNL     1       6.756  -0.829 -17.724  1.00  0.00     0.013 C 
ATOM      9  C   UNL     1       7.066  -1.173 -19.183  1.00  0.00     0.012 C 
ATOM     10  C   UNL     1       6.005  -1.976 -17.041  1.00  0.00     0.012 C 
ENDBRANCH   5   8
TORSDOF 1
ENDMDL
MODEL 7
REMARK VINA RESULT:      -5.3      9.554     11.523
REMARK SMILES Cc1ccc(C(C)C)cc1
REMARK SMILES IDX 1 1 2 2 3 3 4 4 5 5 9 6 10 7 6 8 7 9 8 10
REMARK H PARENT
ROOT
ATOM      1  C   UNL     1      -7.495  -2.948 -28.844  1.00  0.00     0.044 C 
ATOM      2  C   UNL     1      -6.169  -2.249 -28.806  1.00  0.00    -0.051 A 
ATOM      3  C   UNL     1      -5.596  -1.725 -29.968  1.00  0.00     0.004 A 
ATOM      4  C   UNL     1      -4.360  -1.073 -29.918  1.00  0.00     0.004 A 
ATOM      5  C   UNL     1      -3.672  -0.931 -28.704  1.00  0.00    -0.045 A 
ATOM      6  C   UNL     1      -4.251  -1.460 -27.543  1.00  0.00     0.004 A 
ATOM      7  C   UNL     1      -5.487  -2.111 -27.593  1.00  0.00     0.004 A 
ENDROOT
BRANCH   5   8
ATOM      8  C   UNL     1      -2.331  -0.220 -28.676  1.00  0.00     0.013 C 
ATOM      9  C   UNL     1      -1.875   0.184 -30.081  1.00  0.00     0.012 C 
ATOM     10  C   UNL     1      -2.359   0.993 -27.743  1.00  0.00     0.012 C 
ENDBRANCH   5   8
TORSDOF 1
ENDMDL
MODEL 8
REMARK VINA RESULT:      -5.2      9.972     13.466
REMARK SMILES Cc1ccc(C(C)C)cc1
REMARK SMILES IDX 1 1 2 2 3 3 4 4 5 5 9 6 10 7 6 8 7 9 8 10
REMARK H PARENT
ROOT
ATOM      1  C   UNL     1      -7.439   1.313 -32.835  1.00  0.00     0.044 C 
ATOM      2  C   UNL     1      -6.405   0.673 -31.959  1.00  0.00    -0.051 A 
ATOM      3  C   UNL     1      -6.708  -0.451 -31.186  1.00  0.00     0.004 A 
ATOM      4  C   UNL     1      -5.733  -1.040 -30.375  1.00  0.00     0.004 A 
ATOM      5  C   UNL     1      -4.433  -0.516 -30.322  1.00  0.00    -0.045 A 
ATOM      6  C   UNL     1      -4.135   0.612 -31.097  1.00  0.00     0.004 A 
ATOM      7  C   UNL     1      -5.110   1.200 -31.908  1.00  0.00     0.004 A 
ENDROOT
BRANCH   5   8
ATOM      8  C   UNL     1      -3.392  -1.172 -29.433  1.00  0.00     0.013 C 
ATOM      9  C   UNL     1      -2.346  -0.164 -28.947  1.00  0.00     0.012 C 
ATOM     10  C   UNL     1      -4.040  -1.897 -28.250  1.00  0.00     0.012 C 
ENDBRANCH   5   8
TORSDOF 1
ENDMDL
MODEL 9
REMARK VINA RESULT:      -5.2     12.418     15.611
REMARK SMILES Cc1ccc(C(C)C)cc1
REMARK SMILES IDX 1 1 2 2 3 3 4 4 5 5 9 6 10 7 6 8 7 9 8 10
REMARK H PARENT
ROOT
ATOM      1  C   UNL     1     -10.124   0.101 -33.797  1.00  0.00     0.044 C 
ATOM      2  C   UNL     1      -8.877   0.031 -32.968  1.00  0.00    -0.051 A 
ATOM      3  C   UNL     1      -7.873   0.995 -33.091  1.00  0.00     0.004 A 
ATOM      4  C   UNL     1      -6.716   0.919 -32.309  1.00  0.00     0.004 A 
ATOM      5  C   UNL     1      -6.540  -0.122 -31.387  1.00  0.00    -0.045 A 
ATOM      6  C   UNL     1      -7.549  -1.087 -31.269  1.00  0.00     0.004 A 
ATOM      7  C   UNL     1      -8.706  -1.011 -32.050  1.00  0.00     0.004 A 
ENDROOT
BRANCH   5   8
ATOM      8  C   UNL     1      -5.274  -0.183 -30.551  1.00  0.00     0.013 C 
ATOM      9  C   UNL     1      -5.079  -1.565 -29.920  1.00  0.00     0.012 C 
ATOM     10  C   UNL     1      -4.044   0.223 -31.366  1.00  0.00     0.012 C 
ENDBRANCH   5   8
TORSDOF 1
ENDMDL
MODEL 10
REMARK VINA RESULT:      -5.2     12.440     15.670
REMARK SMILES Cc1ccc(C(C)C)cc1
REMARK SMILES IDX 1 1 2 2 3 3 4 4 5 5 9 6 10 7 6 8 7 9 8 10
REMARK H PARENT
ROOT
ATOM      1  C   UNL     1     -10.110   0.097 -33.811  1.00  0.00     0.044 C 
ATOM      2  C   UNL     1      -8.873   0.015 -32.968  1.00  0.00    -0.051 A 
ATOM      3  C   UNL     1      -8.699  -1.016 -32.039  1.00  0.00     0.004 A 
ATOM      4  C   UNL     1      -7.539  -1.082 -31.262  1.00  0.00     0.004 A 
ATOM      5  C   UNL     1      -6.528  -0.119 -31.398  1.00  0.00    -0.045 A 
ATOM      6  C   UNL     1      -6.709   0.912 -32.329  1.00  0.00     0.004 A 
ATOM      7  C   UNL     1      -7.869   0.978 -33.107  1.00  0.00     0.004 A 
ENDROOT
BRANCH   5   8
ATOM      8  C   UNL     1      -5.278  -0.212 -30.542  1.00  0.00     0.013 C 
ATOM      9  C   UNL     1      -5.131  -1.597 -29.904  1.00  0.00     0.012 C 
ATOM     10  C   UNL     1      -4.024   0.157 -31.338  1.00  0.00     0.012 C 
ENDBRANCH   5   8
TORSDOF 1
ENDMDL
