MODEL 1
REMARK VINA RESULT:      -7.5      0.000      0.000
REMARK SMILES C=CC(=C)CC/C=C(\C)CC/C=C(\C)C=O
REMARK SMILES IDX 9 1 8 2 7 3 10 4 11 5 12 6 13 7 14 8 15 9 16 10 6 11 5 12
REMARK SMILES IDX 3 13 4 14 2 15 1 16
REMARK H PARENT
ROOT
ATOM      1  C   UNL     1       6.035  -2.204 -17.453  1.00  0.00     0.039 C 
ATOM      2  C   UNL     1       6.865  -1.339 -18.365  1.00  0.00    -0.077 C 
ATOM      3  C   UNL     1       6.867  -1.415 -19.712  1.00  0.00    -0.028 C 
ENDROOT
BRANCH   2   4
ATOM      4  C   UNL     1       7.726  -0.307 -17.658  1.00  0.00     0.034 C 
BRANCH   4   5
ATOM      5  C   UNL     1       8.365  -0.853 -16.372  1.00  0.00     0.032 C 
BRANCH   5   6
ATOM      6  C   UNL     1       9.842  -0.550 -16.317  1.00  0.00    -0.020 C 
ATOM      7  C   UNL     1      10.429   0.451 -15.634  1.00  0.00    -0.015 C 
ATOM      8  C   UNL     1       9.767   1.455 -14.741  1.00  0.00     0.047 C 
BRANCH   7   9
ATOM      9  C   UNL     1      11.912   0.573 -15.749  1.00  0.00     0.254 C 
ATOM     10  O   UNL     1      12.461   1.580 -16.178  1.00  0.00    -0.298 OA
ENDBRANCH   7   9
ENDBRANCH   5   6
ENDBRANCH   4   5
ENDBRANCH   2   4
BRANCH   3  11
ATOM     11  C   UNL     1       6.095  -2.364 -20.592  1.00  0.00     0.032 C 
BRANCH  11  12
ATOM     12  C   UNL     1       5.895  -1.783 -21.998  1.00  0.00     0.039 C 
BRANCH  12  13
ATOM     13  C   UNL     1       4.738  -2.437 -22.725  1.00  0.00    -0.055 C 
ATOM     14  C   UNL     1       4.175  -3.571 -22.279  1.00  0.00     0.012 C 
BRANCH  13  15
ATOM     15  C   UNL     1       4.338  -1.817 -23.976  1.00  0.00    -0.005 C 
ATOM     16  C   UNL     1       5.129  -1.050 -24.736  1.00  0.00     0.009 C 
ENDBRANCH  13  15
ENDBRANCH  12  13
ENDBRANCH  11  12
ENDBRANCH   3  11
TORSDOF 8
ENDMDL
MODEL 2
REMARK VINA RESULT:      -7.3      3.220      8.477
REMARK SMILES C=CC(=C)CC/C=C(\C)CC/C=C(\C)C=O
REMARK SMILES IDX 9 1 8 2 7 3 10 4 11 5 12 6 13 7 14 8 15 9 16 10 6 11 5 12
REMARK SMILES IDX 3 13 4 14 2 15 1 16
REMARK H PARENT
ROOT
ATOM      1  C   UNL     1       6.066  -1.058 -18.030  1.00  0.00     0.039 C 
ATOM      2  C   UNL     1       7.381  -1.202 -18.750  1.00  0.00    -0.077 C 
ATOM      3  C   UNL     1       8.502  -0.509 -18.459  1.00  0.00    -0.028 C 
ENDROOT
BRANCH   2   4
ATOM      4  C   UNL     1       7.391  -2.237 -19.861  1.00  0.00     0.034 C 
BRANCH   4   5
ATOM      5  C   UNL     1       5.991  -2.499 -20.435  1.00  0.00     0.032 C 
BRANCH   5   6
ATOM      6  C   UNL     1       5.836  -1.900 -21.811  1.00  0.00    -0.020 C 
ATOM      7  C   UNL     1       4.976  -2.300 -22.767  1.00  0.00    -0.015 C 
ATOM      8  C   UNL     1       3.951  -3.388 -22.672  1.00  0.00     0.047 C 
BRANCH   7   9
ATOM      9  C   UNL     1       5.018  -1.570 -24.068  1.00  0.00     0.254 C 
ATOM     10  O   UNL     1       4.115  -1.635 -24.892  1.00  0.00    -0.298 OA
ENDBRANCH   7   9
ENDBRANCH   5   6
ENDBRANCH   4   5
ENDBRANCH   2   4
BRANCH   3  11
ATOM     11  C   UNL     1       8.692   0.554 -17.407  1.00  0.00     0.032 C 
BRANCH  11  12
ATOM     12  C   UNL     1       9.343  -0.024 -16.143  1.00  0.00     0.039 C 
BRANCH  12  13
ATOM     13  C   UNL     1      10.294   0.959 -15.493  1.00  0.00    -0.055 C 
ATOM     14  C   UNL     1       9.875   2.151 -15.038  1.00  0.00     0.012 C 
BRANCH  13  15
ATOM     15  C   UNL     1      11.694   0.575 -15.475  1.00  0.00    -0.005 C 
ATOM     16  C   UNL     1      12.272  -0.165 -14.520  1.00  0.00     0.009 C 
ENDBRANCH  13  15
ENDBRANCH  12  13
ENDBRANCH  11  12
ENDBRANCH   3  11
TORSDOF 8
ENDMDL
MODEL 3
REMARK VINA RESULT:      -7.0      1.551      3.157
REMARK SMILES C=CC(=C)CC/C=C(\C)CC/C=C(\C)C=O
REMARK SMILES IDX 9 1 8 2 7 3 10 4 11 5 12 6 13 7 14 8 15 9 16 10 6 11 5 12
REMARK SMILES IDX 3 13 4 14 2 15 1 16
REMARK H PARENT
ROOT
ATOM      1  C   UNL     1       8.842  -1.342 -15.765  1.00  0.00     0.039 C 
ATOM      2  C   UNL     1       8.687  -0.035 -16.497  1.00  0.00    -0.077 C 
ATOM      3  C   UNL     1       7.750   0.221 -17.433  1.00  0.00    -0.028 C 
ENDROOT
BRANCH   2   4
ATOM      4  C   UNL     1       9.675   1.045 -16.090  1.00  0.00     0.034 C 
BRANCH   4   5
ATOM      5  C   UNL     1      10.965   0.470 -15.488  1.00  0.00     0.032 C 
BRANCH   5   6
ATOM      6  C   UNL     1      12.188   1.152 -16.047  1.00  0.00    -0.020 C 
ATOM      7  C   UNL     1      12.702   2.331 -15.646  1.00  0.00    -0.015 C 
ATOM      8  C   UNL     1      12.214   3.204 -14.531  1.00  0.00     0.047 C 
BRANCH   7   9
ATOM      9  C   UNL     1      13.911   2.826 -16.366  1.00  0.00     0.254 C 
ATOM     10  O   UNL     1      13.844   3.559 -17.345  1.00  0.00    -0.298 OA
ENDBRANCH   7   9
ENDBRANCH   5   6
ENDBRANCH   4   5
ENDBRANCH   2   4
BRANCH   3  11
ATOM     11  C   UNL     1       6.695  -0.710 -17.973  1.00  0.00     0.032 C 
BRANCH  11  12
ATOM     12  C   UNL     1       7.118  -1.311 -19.320  1.00  0.00     0.039 C 
BRANCH  12  13
ATOM     13  C   UNL     1       6.384  -2.601 -19.623  1.00  0.00    -0.055 C 
ATOM     14  C   UNL     1       6.049  -3.467 -18.654  1.00  0.00     0.012 C 
BRANCH  13  15
ATOM     15  C   UNL     1       6.147  -2.885 -21.027  1.00  0.00    -0.005 C 
ATOM     16  C   UNL     1       5.425  -2.116 -21.852  1.00  0.00     0.009 C 
ENDBRANCH  13  15
ENDBRANCH  12  13
ENDBRANCH  11  12
ENDBRANCH   3  11
TORSDOF 8
ENDMDL
MODEL 4
REMARK VINA RESULT:      -6.8      2.082      4.311
REMARK SMILES C=CC(=C)CC/C=C(\C)CC/C=C(\C)C=O
REMARK SMILES IDX 9 1 8 2 7 3 10 4 11 5 12 6 13 7 14 8 15 9 16 10 6 11 5 12
REMARK SMILES IDX 3 13 4 14 2 15 1 16
REMARK H PARENT
ROOT
ATOM      1  C   UNL     1       8.990  -1.573 -15.328  1.00  0.00     0.039 C 
ATOM      2  C   UNL     1       9.834  -0.414 -15.791  1.00  0.00    -0.077 C 
ATOM      3  C   UNL     1       9.456   0.499 -16.710  1.00  0.00    -0.028 C 
ENDROOT
BRANCH   2   4
ATOM      4  C   UNL     1      11.191  -0.303 -15.117  1.00  0.00     0.034 C 
BRANCH   4   5
ATOM      5  C   UNL     1      12.160   0.605 -15.888  1.00  0.00     0.032 C 
BRANCH   5   6
ATOM      6  C   UNL     1      12.333   1.937 -15.200  1.00  0.00    -0.020 C 
ATOM      7  C   UNL     1      13.014   2.999 -15.671  1.00  0.00    -0.015 C 
ATOM      8  C   UNL     1      13.709   3.121 -16.992  1.00  0.00     0.047 C 
BRANCH   7   9
ATOM      9  C   UNL     1      13.073   4.209 -14.801  1.00  0.00     0.254 C 
ATOM     10  O   UNL     1      13.975   4.402 -13.995  1.00  0.00    -0.298 OA
ENDBRANCH   7   9
ENDBRANCH   5   6
ENDBRANCH   4   5
ENDBRANCH   2   4
BRANCH   3  11
ATOM     11  C   UNL     1       8.167   0.559 -17.487  1.00  0.00     0.032 C 
BRANCH  11  12
ATOM     12  C   UNL     1       8.210  -0.364 -18.712  1.00  0.00     0.039 C 
BRANCH  12  13
ATOM     13  C   UNL     1       7.015  -1.292 -18.769  1.00  0.00    -0.055 C 
ATOM     14  C   UNL     1       6.124  -1.356 -17.767  1.00  0.00     0.012 C 
BRANCH  13  15
ATOM     15  C   UNL     1       6.942  -2.169 -19.924  1.00  0.00    -0.005 C 
ATOM     16  C   UNL     1       5.975  -2.136 -20.850  1.00  0.00     0.009 C 
ENDBRANCH  13  15
ENDBRANCH  12  13
ENDBRANCH  11  12
ENDBRANCH   3  11
TORSDOF 8
ENDMDL
MODEL 5
REMARK VINA RESULT:      -6.8     15.365     19.439
REMARK SMILES C=CC(=C)CC/C=C(\C)CC/C=C(\C)C=O
REMARK SMILES IDX 9 1 8 2 7 3 10 4 11 5 12 6 13 7 14 8 15 9 16 10 6 11 5 12
REMARK SMILES IDX 3 13 4 14 2 15 1 16
REMARK H PARENT
ROOT
ATOM      1  C   UNL     1      -6.958   0.032 -29.469  1.00  0.00     0.039 C 
ATOM      2  C   UNL     1      -5.878   0.379 -30.459  1.00  0.00    -0.077 C 
ATOM      3  C   UNL     1      -4.746  -0.329 -30.649  1.00  0.00    -0.028 C 
ENDROOT
BRANCH   2   4
ATOM      4  C   UNL     1      -6.152   1.618 -31.294  1.00  0.00     0.034 C 
BRANCH   4   5
ATOM      5  C   UNL     1      -6.631   1.279 -32.714  1.00  0.00     0.032 C 
BRANCH   5   6
ATOM      6  C   UNL     1      -8.125   1.438 -32.846  1.00  0.00    -0.020 C 
ATOM      7  C   UNL     1      -9.045   0.459 -32.755  1.00  0.00    -0.015 C 
ATOM      8  C   UNL     1      -8.808  -0.989 -32.456  1.00  0.00     0.047 C 
BRANCH   7   9
ATOM      9  C   UNL     1     -10.473   0.849 -32.946  1.00  0.00     0.254 C 
ATOM     10  O   UNL     1     -11.357   0.033 -33.173  1.00  0.00    -0.298 OA
ENDBRANCH   7   9
ENDBRANCH   5   6
ENDBRANCH   4   5
ENDBRANCH   2   4
BRANCH   3  11
ATOM     11  C   UNL     1      -4.292  -1.571 -29.925  1.00  0.00     0.032 C 
BRANCH  11  12
ATOM     12  C   UNL     1      -3.194  -1.250 -28.902  1.00  0.00     0.039 C 
BRANCH  12  13
ATOM     13  C   UNL     1      -3.764  -0.714 -27.604  1.00  0.00    -0.055 C 
ATOM     14  C   UNL     1      -4.698  -1.386 -26.914  1.00  0.00     0.012 C 
BRANCH  13  15
ATOM     15  C   UNL     1      -3.308   0.605 -27.204  1.00  0.00    -0.005 C 
ATOM     16  C   UNL     1      -3.011   1.601 -28.049  1.00  0.00     0.009 C 
ENDBRANCH  13  15
ENDBRANCH  12  13
ENDBRANCH  11  12
ENDBRANCH   3  11
TORSDOF 8
ENDMDL
MODEL 6
REMARK VINA RESULT:      -6.7      3.087      8.259
REMARK SMILES C=CC(=C)CC/C=C(\C)CC/C=C(\C)C=O
REMARK SMILES IDX 9 1 8 2 7 3 10 4 11 5 12 6 13 7 14 8 15 9 16 10 6 11 5 12
REMARK SMILES IDX 3 13 4 14 2 15 1 16
REMARK H PARENT
ROOT
ATOM      1  C   UNL     1       7.632   1.061 -16.963  1.00  0.00     0.039 C 
ATOM      2  C   UNL     1       8.524  -0.057 -17.436  1.00  0.00    -0.077 C 
ATOM      3  C   UNL     1       9.622  -0.498 -16.788  1.00  0.00    -0.028 C 
ENDROOT
BRANCH   2   4
ATOM      4  C   UNL     1       8.088  -0.715 -18.734  1.00  0.00     0.034 C 
BRANCH   4   5
ATOM      5  C   UNL     1       6.667  -1.291 -18.657  1.00  0.00     0.032 C 
BRANCH   5   6
ATOM      6  C   UNL     1       6.006  -1.317 -20.013  1.00  0.00    -0.020 C 
ATOM      7  C   UNL     1       6.110  -2.293 -20.935  1.00  0.00    -0.015 C 
ATOM      8  C   UNL     1       6.855  -3.586 -20.813  1.00  0.00     0.047 C 
BRANCH   7   9
ATOM      9  C   UNL     1       5.384  -2.090 -22.223  1.00  0.00     0.254 C 
ATOM     10  O   UNL     1       4.535  -2.871 -22.634  1.00  0.00    -0.298 OA
ENDBRANCH   7   9
ENDBRANCH   5   6
ENDBRANCH   4   5
ENDBRANCH   2   4
BRANCH   3  11
ATOM     11  C   UNL     1      10.215   0.020 -15.503  1.00  0.00     0.032 C 
BRANCH  11  12
ATOM     12  C   UNL     1      11.557   0.721 -15.752  1.00  0.00     0.039 C 
BRANCH  12  13
ATOM     13  C   UNL     1      11.457   2.222 -15.579  1.00  0.00    -0.055 C 
ATOM     14  C   UNL     1      10.376   2.798 -15.029  1.00  0.00     0.012 C 
BRANCH  13  15
ATOM     15  C   UNL     1      12.553   3.002 -16.125  1.00  0.00    -0.005 C 
ATOM     16  C   UNL     1      13.618   2.489 -16.753  1.00  0.00     0.009 C 
ENDBRANCH  13  15
ENDBRANCH  12  13
ENDBRANCH  11  12
ENDBRANCH   3  11
TORSDOF 8
ENDMDL
MODEL 7
REMARK VINA RESULT:      -6.7     15.298     19.792
REMARK SMILES C=CC(=C)CC/C=C(\C)CC/C=C(\C)C=O
REMARK SMILES IDX 9 1 8 2 7 3 10 4 11 5 12 6 13 7 14 8 15 9 16 10 6 11 5 12
REMARK SMILES IDX 3 13 4 14 2 15 1 16
REMARK H PARENT
ROOT
ATOM      1  C   UNL     1      -6.523   0.227 -29.820  1.00  0.00     0.039 C 
ATOM      2  C   UNL     1      -5.847   0.876 -30.999  1.00  0.00    -0.077 C 
ATOM      3  C   UNL     1      -4.608   0.576 -31.442  1.00  0.00    -0.028 C 
ENDROOT
BRANCH   2   4
ATOM      4  C   UNL     1      -6.682   1.922 -31.717  1.00  0.00     0.034 C 
BRANCH   4   5
ATOM      5  C   UNL     1      -6.923   1.573 -33.193  1.00  0.00     0.032 C 
BRANCH   5   6
ATOM      6  C   UNL     1      -8.062   0.597 -33.350  1.00  0.00    -0.020 C 
ATOM      7  C   UNL     1      -9.373   0.863 -33.193  1.00  0.00    -0.015 C 
ATOM      8  C   UNL     1     -10.002   2.184 -32.877  1.00  0.00     0.047 C 
BRANCH   7   9
ATOM      9  C   UNL     1     -10.323  -0.273 -33.375  1.00  0.00     0.254 C 
ATOM     10  O   UNL     1     -11.462  -0.262 -32.924  1.00  0.00    -0.298 OA
ENDBRANCH   7   9
ENDBRANCH   5   6
ENDBRANCH   4   5
ENDBRANCH   2   4
BRANCH   3  11
ATOM     11  C   UNL     1      -3.631  -0.418 -30.869  1.00  0.00     0.032 C 
BRANCH  11  12
ATOM     12  C   UNL     1      -2.746   0.227 -29.794  1.00  0.00     0.039 C 
BRANCH  12  13
ATOM     13  C   UNL     1      -3.182  -0.153 -28.395  1.00  0.00    -0.055 C 
ATOM     14  C   UNL     1      -3.069   0.701 -27.365  1.00  0.00     0.012 C 
BRANCH  13  15
ATOM     15  C   UNL     1      -3.641  -1.519 -28.218  1.00  0.00    -0.005 C 
ATOM     16  C   UNL     1      -4.608  -1.898 -27.373  1.00  0.00     0.009 C 
ENDBRANCH  13  15
ENDBRANCH  12  13
ENDBRANCH  11  12
ENDBRANCH   3  11
TORSDOF 8
ENDMDL
MODEL 8
REMARK VINA RESULT:      -6.6     15.383     19.318
REMARK SMILES C=CC(=C)CC/C=C(\C)CC/C=C(\C)C=O
REMARK SMILES IDX 9 1 8 2 7 3 10 4 11 5 12 6 13 7 14 8 15 9 16 10 6 11 5 12
REMARK SMILES IDX 3 13 4 14 2 15 1 16
REMARK H PARENT
ROOT
ATOM      1  C   UNL     1      -6.435   0.847 -28.139  1.00  0.00     0.039 C 
ATOM      2  C   UNL     1      -6.683  -0.463 -28.840  1.00  0.00    -0.077 C 
ATOM      3  C   UNL     1      -5.894  -1.553 -28.743  1.00  0.00    -0.028 C 
ENDROOT
BRANCH   2   4
ATOM      4  C   UNL     1      -7.945  -0.506 -29.684  1.00  0.00     0.034 C 
BRANCH   4   5
ATOM      5  C   UNL     1      -7.734  -1.227 -31.023  1.00  0.00     0.032 C 
BRANCH   5   6
ATOM      6  C   UNL     1      -8.875  -0.968 -31.976  1.00  0.00    -0.020 C 
ATOM      7  C   UNL     1      -8.905  -0.045 -32.956  1.00  0.00    -0.015 C 
ATOM      8  C   UNL     1      -7.810   0.893 -33.357  1.00  0.00     0.047 C 
BRANCH   7   9
ATOM      9  C   UNL     1     -10.158   0.048 -33.762  1.00  0.00     0.254 C 
ATOM     10  O   UNL     1     -11.273   0.014 -33.257  1.00  0.00    -0.298 OA
ENDBRANCH   7   9
ENDBRANCH   5   6
ENDBRANCH   4   5
ENDBRANCH   2   4
BRANCH   3  11
ATOM     11  C   UNL     1      -4.610  -1.707 -27.969  1.00  0.00     0.032 C 
BRANCH  11  12
ATOM     12  C   UNL     1      -3.407  -1.865 -28.909  1.00  0.00     0.039 C 
BRANCH  12  13
ATOM     13  C   UNL     1      -2.923  -0.533 -29.442  1.00  0.00    -0.055 C 
ATOM     14  C   UNL     1      -3.006  -0.223 -30.746  1.00  0.00     0.012 C 
BRANCH  13  15
ATOM     15  C   UNL     1      -2.283   0.346 -28.479  1.00  0.00    -0.005 C 
ATOM     16  C   UNL     1      -2.714   1.572 -28.159  1.00  0.00     0.009 C 
ENDBRANCH  13  15
ENDBRANCH  12  13
ENDBRANCH  11  12
ENDBRANCH   3  11
TORSDOF 8
ENDMDL
MODEL 9
REMARK VINA RESULT:      -6.4     15.577     19.189
REMARK SMILES C=CC(=C)CC/C=C(\C)CC/C=C(\C)C=O
REMARK SMILES IDX 9 1 8 2 7 3 10 4 11 5 12 6 13 7 14 8 15 9 16 10 6 11 5 12
REMARK SMILES IDX 3 13 4 14 2 15 1 16
REMARK H PARENT
ROOT
ATOM      1  C   UNL     1      -6.463   2.114 -28.593  1.00  0.00     0.039 C 
ATOM      2  C   UNL     1      -5.570   2.204 -29.802  1.00  0.00    -0.077 C 
ATOM      3  C   UNL     1      -4.221   2.182 -29.771  1.00  0.00    -0.028 C 
ENDROOT
BRANCH   2   4
ATOM      4  C   UNL     1      -6.302   2.299 -31.130  1.00  0.00     0.034 C 
BRANCH   4   5
ATOM      5  C   UNL     1      -6.324   0.965 -31.889  1.00  0.00     0.032 C 
BRANCH   5   6
ATOM      6  C   UNL     1      -7.503   0.882 -32.826  1.00  0.00    -0.020 C 
ATOM      7  C   UNL     1      -8.702   0.329 -32.559  1.00  0.00    -0.015 C 
ATOM      8  C   UNL     1      -9.156  -0.281 -31.269  1.00  0.00     0.047 C 
BRANCH   7   9
ATOM      9  C   UNL     1      -9.715   0.340 -33.655  1.00  0.00     0.254 C 
ATOM     10  O   UNL     1     -10.907   0.145 -33.456  1.00  0.00    -0.298 OA
ENDBRANCH   7   9
ENDBRANCH   5   6
ENDBRANCH   4   5
ENDBRANCH   2   4
BRANCH   3  11
ATOM     11  C   UNL     1      -3.320   2.098 -28.567  1.00  0.00     0.032 C 
BRANCH  11  12
ATOM     12  C   UNL     1      -2.609   0.739 -28.496  1.00  0.00     0.039 C 
BRANCH  12  13
ATOM     13  C   UNL     1      -3.565  -0.387 -28.161  1.00  0.00    -0.055 C 
ATOM     14  C   UNL     1      -4.158  -0.475 -26.959  1.00  0.00     0.012 C 
BRANCH  13  15
ATOM     15  C   UNL     1      -3.730  -1.408 -29.180  1.00  0.00    -0.005 C 
ATOM     16  C   UNL     1      -4.897  -1.744 -29.744  1.00  0.00     0.009 C 
ENDBRANCH  13  15
ENDBRANCH  12  13
ENDBRANCH  11  12
ENDBRANCH   3  11
TORSDOF 8
ENDMDL
MODEL 10
REMARK VINA RESULT:      -6.4     15.333     19.153
REMARK SMILES C=CC(=C)CC/C=C(\C)CC/C=C(\C)C=O
REMARK SMILES IDX 9 1 8 2 7 3 10 4 11 5 12 6 13 7 14 8 15 9 16 10 6 11 5 12
REMARK SMILES IDX 3 13 4 14 2 15 1 16
REMARK H PARENT
ROOT
ATOM      1  C   UNL     1      -4.742   3.997 -30.366  1.00  0.00     0.039 C 
ATOM      2  C   UNL     1      -5.260   2.654 -29.923  1.00  0.00    -0.077 C 
ATOM      3  C   UNL     1      -4.613   1.810 -29.093  1.00  0.00    -0.028 C 
ENDROOT
BRANCH   2   4
ATOM      4  C   UNL     1      -6.631   2.288 -30.467  1.00  0.00     0.034 C 
BRANCH   4   5
ATOM      5  C   UNL     1      -6.553   1.421 -31.731  1.00  0.00     0.032 C 
BRANCH   5   6
ATOM      6  C   UNL     1      -7.860   1.421 -32.483  1.00  0.00    -0.020 C 
ATOM      7  C   UNL     1      -8.711   0.385 -32.610  1.00  0.00    -0.015 C 
ATOM      8  C   UNL     1      -8.584  -0.977 -32.002  1.00  0.00     0.047 C 
BRANCH   7   9
ATOM      9  C   UNL     1      -9.939   0.611 -33.427  1.00  0.00     0.254 C 
ATOM     10  O   UNL     1     -10.906   1.236 -33.010  1.00  0.00    -0.298 OA
ENDBRANCH   7   9
ENDBRANCH   5   6
ENDBRANCH   4   5
ENDBRANCH   2   4
BRANCH   3  11
ATOM     11  C   UNL     1      -3.258   1.986 -28.459  1.00  0.00     0.032 C 
BRANCH  11  12
ATOM     12  C   UNL     1      -2.661   0.637 -28.036  1.00  0.00     0.039 C 
BRANCH  12  13
ATOM     13  C   UNL     1      -2.688  -0.376 -29.162  1.00  0.00    -0.055 C 
ATOM     14  C   UNL     1      -2.146  -0.111 -30.361  1.00  0.00     0.012 C 
BRANCH  13  15
ATOM     15  C   UNL     1      -3.411  -1.607 -28.896  1.00  0.00    -0.005 C 
ATOM     16  C   UNL     1      -4.379  -1.742 -27.981  1.00  0.00     0.009 C 
ENDBRANCH  13  15
ENDBRANCH  12  13
ENDBRANCH  11  12
ENDBRANCH   3  11
TORSDOF 8
ENDMDL
