MODEL 1
REMARK VINA RESULT:      -5.7      0.000      0.000
REMARK SMILES CC1=CC[C@@H]2C[C@H]1C2(C)C
REMARK SMILES IDX 1 1 2 2 3 3 4 4 5 5 6 6 7 7 8 8 9 9 10 10
REMARK H PARENT
ROOT
ATOM      1  C   UNL     1      -7.244   2.158 -30.407  1.00  0.00     0.039 C 
ATOM      2  C   UNL     1      -7.844   1.598 -31.652  1.00  0.00    -0.074 C 
ATOM      3  C   UNL     1      -7.178   1.356 -32.799  1.00  0.00    -0.027 C 
ATOM      4  C   UNL     1      -7.889   0.764 -34.000  1.00  0.00     0.031 C 
ATOM      5  C   UNL     1      -9.376   0.542 -33.652  1.00  0.00    -0.000 C 
ATOM      6  C   UNL     1      -9.967   1.833 -32.994  1.00  0.00     0.013 C 
ATOM      7  C   UNL     1      -9.319   1.277 -31.673  1.00  0.00     0.021 C 
ATOM      8  C   UNL     1      -9.655  -0.169 -32.254  1.00  0.00    -0.026 C 
ATOM      9  C   UNL     1      -8.740  -1.337 -31.863  1.00  0.00     0.012 C 
ATOM     10  C   UNL     1     -11.110  -0.631 -32.035  1.00  0.00     0.012 C 
ENDROOT
TORSDOF 0
ENDMDL
MODEL 2
REMARK VINA RESULT:      -5.6      5.091      7.254
REMARK SMILES CC1=CC[C@@H]2C[C@H]1C2(C)C
REMARK SMILES IDX 1 1 2 2 3 3 4 4 5 5 6 6 7 7 8 8 9 9 10 10
REMARK H PARENT
ROOT
ATOM      1  C   UNL     1      -4.835  -0.876 -26.027  1.00  0.00     0.039 C 
ATOM      2  C   UNL     1      -4.046  -0.509 -27.237  1.00  0.00    -0.074 C 
ATOM      3  C   UNL     1      -3.747  -1.341 -28.256  1.00  0.00    -0.027 C 
ATOM      4  C   UNL     1      -2.952  -0.852 -29.450  1.00  0.00     0.031 C 
ATOM      5  C   UNL     1      -2.595   0.636 -29.249  1.00  0.00    -0.000 C 
ATOM      6  C   UNL     1      -2.002   0.852 -27.817  1.00  0.00     0.013 C 
ATOM      7  C   UNL     1      -3.507   0.895 -27.362  1.00  0.00     0.021 C 
ATOM      8  C   UNL     1      -3.794   1.572 -28.777  1.00  0.00    -0.026 C 
ATOM      9  C   UNL     1      -5.166   1.340 -29.425  1.00  0.00     0.012 C 
ATOM     10  C   UNL     1      -3.505   3.086 -28.840  1.00  0.00     0.012 C 
ENDROOT
TORSDOF 0
ENDMDL
MODEL 3
REMARK VINA RESULT:      -5.5      1.050      1.422
REMARK SMILES CC1=CC[C@@H]2C[C@H]1C2(C)C
REMARK SMILES IDX 1 1 2 2 3 3 4 4 5 5 6 6 7 7 8 8 9 9 10 10
REMARK H PARENT
ROOT
ATOM      1  C   UNL     1      -6.260   1.287 -32.251  1.00  0.00     0.039 C 
ATOM      2  C   UNL     1      -7.687   1.003 -32.579  1.00  0.00    -0.074 C 
ATOM      3  C   UNL     1      -8.159   0.687 -33.802  1.00  0.00    -0.027 C 
ATOM      4  C   UNL     1      -9.631   0.397 -34.016  1.00  0.00     0.031 C 
ATOM      5  C   UNL     1     -10.378   0.541 -32.673  1.00  0.00    -0.000 C 
ATOM      6  C   UNL     1      -9.974   1.885 -31.981  1.00  0.00     0.013 C 
ATOM      7  C   UNL     1      -8.720   1.077 -31.481  1.00  0.00     0.021 C 
ATOM      8  C   UNL     1      -9.697  -0.181 -31.428  1.00  0.00    -0.026 C 
ATOM      9  C   UNL     1      -9.097  -1.574 -31.663  1.00  0.00     0.012 C 
ATOM     10  C   UNL     1     -10.574  -0.266 -30.162  1.00  0.00     0.012 C 
ENDROOT
TORSDOF 0
ENDMDL
MODEL 4
REMARK VINA RESULT:      -5.5      5.404      6.843
REMARK SMILES CC1=CC[C@@H]2C[C@H]1C2(C)C
REMARK SMILES IDX 1 1 2 2 3 3 4 4 5 5 6 6 7 7 8 8 9 9 10 10
REMARK H PARENT
ROOT
ATOM      1  C   UNL     1      -5.412   2.780 -29.131  1.00  0.00     0.039 C 
ATOM      2  C   UNL     1      -4.255   1.892 -28.821  1.00  0.00    -0.074 C 
ATOM      3  C   UNL     1      -3.103   2.284 -28.239  1.00  0.00    -0.027 C 
ATOM      4  C   UNL     1      -1.998   1.287 -27.953  1.00  0.00     0.031 C 
ATOM      5  C   UNL     1      -2.438  -0.112 -28.436  1.00  0.00    -0.000 C 
ATOM      6  C   UNL     1      -3.003  -0.019 -29.893  1.00  0.00     0.013 C 
ATOM      7  C   UNL     1      -4.336   0.430 -29.187  1.00  0.00     0.021 C 
ATOM      8  C   UNL     1      -3.907  -0.555 -28.009  1.00  0.00    -0.026 C 
ATOM      9  C   UNL     1      -4.359  -0.215 -26.582  1.00  0.00     0.012 C 
ATOM     10  C   UNL     1      -4.239  -2.041 -28.255  1.00  0.00     0.012 C 
ENDROOT
TORSDOF 0
ENDMDL
MODEL 5
REMARK VINA RESULT:      -5.3      5.603      6.942
REMARK SMILES CC1=CC[C@@H]2C[C@H]1C2(C)C
REMARK SMILES IDX 1 1 2 2 3 3 4 4 5 5 6 6 7 7 8 8 9 9 10 10
REMARK H PARENT
ROOT
ATOM      1  C   UNL     1      -2.992  -0.598 -31.252  1.00  0.00     0.039 C 
ATOM      2  C   UNL     1      -3.009  -0.147 -29.831  1.00  0.00    -0.074 C 
ATOM      3  C   UNL     1      -1.970   0.411 -29.176  1.00  0.00    -0.027 C 
ATOM      4  C   UNL     1      -2.108   0.851 -27.732  1.00  0.00     0.031 C 
ATOM      5  C   UNL     1      -3.536   0.538 -27.239  1.00  0.00    -0.000 C 
ATOM      6  C   UNL     1      -3.918  -0.933 -27.612  1.00  0.00     0.013 C 
ATOM      7  C   UNL     1      -4.269  -0.327 -29.021  1.00  0.00     0.021 C 
ATOM      8  C   UNL     1      -4.712   0.978 -28.219  1.00  0.00    -0.026 C 
ATOM      9  C   UNL     1      -4.575   2.338 -28.918  1.00  0.00     0.012 C 
ATOM     10  C   UNL     1      -6.128   0.914 -27.611  1.00  0.00     0.012 C 
ENDROOT
TORSDOF 0
ENDMDL
MODEL 6
REMARK VINA RESULT:      -5.3      4.540      6.560
REMARK SMILES CC1=CC[C@@H]2C[C@H]1C2(C)C
REMARK SMILES IDX 1 1 2 2 3 3 4 4 5 5 6 6 7 7 8 8 9 9 10 10
REMARK H PARENT
ROOT
ATOM      1  C   UNL     1      -6.202  -0.115 -31.136  1.00  0.00     0.039 C 
ATOM      2  C   UNL     1      -4.857  -0.251 -30.507  1.00  0.00    -0.074 C 
ATOM      3  C   UNL     1      -3.678  -0.088 -31.141  1.00  0.00    -0.027 C 
ATOM      4  C   UNL     1      -2.368  -0.231 -30.394  1.00  0.00     0.031 C 
ATOM      5  C   UNL     1      -2.658  -0.578 -28.919  1.00  0.00    -0.000 C 
ATOM      6  C   UNL     1      -3.695  -1.748 -28.841  1.00  0.00     0.013 C 
ATOM      7  C   UNL     1      -4.766  -0.614 -29.044  1.00  0.00     0.021 C 
ATOM      8  C   UNL     1      -3.772   0.314 -28.211  1.00  0.00    -0.026 C 
ATOM      9  C   UNL     1      -3.765   1.819 -28.511  1.00  0.00     0.012 C 
ATOM     10  C   UNL     1      -3.865   0.149 -26.680  1.00  0.00     0.012 C 
ENDROOT
TORSDOF 0
ENDMDL
MODEL 7
REMARK VINA RESULT:      -5.2      1.020      3.322
REMARK SMILES CC1=CC[C@@H]2C[C@H]1C2(C)C
REMARK SMILES IDX 1 1 2 2 3 3 4 4 5 5 6 6 7 7 8 8 9 9 10 10
REMARK H PARENT
ROOT
ATOM      1  C   UNL     1      -9.750  -1.857 -31.173  1.00  0.00     0.039 C 
ATOM      2  C   UNL     1      -9.489  -0.513 -31.762  1.00  0.00    -0.074 C 
ATOM      3  C   UNL     1     -10.376   0.502 -31.817  1.00  0.00    -0.027 C 
ATOM      4  C   UNL     1      -9.992   1.837 -32.423  1.00  0.00     0.031 C 
ATOM      5  C   UNL     1      -8.531   1.772 -32.914  1.00  0.00    -0.000 C 
ATOM      6  C   UNL     1      -8.312   0.475 -33.763  1.00  0.00     0.013 C 
ATOM      7  C   UNL     1      -8.136  -0.229 -32.367  1.00  0.00     0.021 C 
ATOM      8  C   UNL     1      -7.488   1.146 -31.886  1.00  0.00    -0.026 C 
ATOM      9  C   UNL     1      -7.635   1.536 -30.408  1.00  0.00     0.012 C 
ATOM     10  C   UNL     1      -6.005   1.330 -32.265  1.00  0.00     0.012 C 
ENDROOT
TORSDOF 0
ENDMDL
MODEL 8
REMARK VINA RESULT:      -5.2      4.844      6.649
REMARK SMILES CC1=CC[C@@H]2C[C@H]1C2(C)C
REMARK SMILES IDX 1 1 2 2 3 3 4 4 5 5 6 6 7 7 8 8 9 9 10 10
REMARK H PARENT
ROOT
ATOM      1  C   UNL     1      -1.922   0.251 -29.219  1.00  0.00     0.039 C 
ATOM      2  C   UNL     1      -3.087  -0.182 -28.396  1.00  0.00    -0.074 C 
ATOM      3  C   UNL     1      -3.435   0.337 -27.201  1.00  0.00    -0.027 C 
ATOM      4  C   UNL     1      -4.656  -0.169 -26.460  1.00  0.00     0.031 C 
ATOM      5  C   UNL     1      -5.323  -1.290 -27.284  1.00  0.00    -0.000 C 
ATOM      6  C   UNL     1      -4.244  -2.327 -27.744  1.00  0.00     0.013 C 
ATOM      7  C   UNL     1      -3.966  -1.300 -28.902  1.00  0.00     0.021 C 
ATOM      8  C   UNL     1      -5.526  -0.976 -28.833  1.00  0.00    -0.026 C 
ATOM      9  C   UNL     1      -5.988   0.438 -29.210  1.00  0.00     0.012 C 
ATOM     10  C   UNL     1      -6.427  -1.973 -29.589  1.00  0.00     0.012 C 
ENDROOT
TORSDOF 0
ENDMDL
MODEL 9
REMARK VINA RESULT:      -5.2      4.584      6.816
REMARK SMILES CC1=CC[C@@H]2C[C@H]1C2(C)C
REMARK SMILES IDX 1 1 2 2 3 3 4 4 5 5 6 6 7 7 8 8 9 9 10 10
REMARK H PARENT
ROOT
ATOM      1  C   UNL     1      -5.825  -0.080 -31.187  1.00  0.00     0.039 C 
ATOM      2  C   UNL     1      -5.097  -0.440 -29.937  1.00  0.00    -0.074 C 
ATOM      3  C   UNL     1      -4.812  -1.694 -29.533  1.00  0.00    -0.027 C 
ATOM      4  C   UNL     1      -4.046  -1.942 -28.249  1.00  0.00     0.031 C 
ATOM      5  C   UNL     1      -3.716  -0.589 -27.584  1.00  0.00    -0.000 C 
ATOM      6  C   UNL     1      -5.002   0.302 -27.527  1.00  0.00     0.013 C 
ATOM      7  C   UNL     1      -4.636   0.663 -29.014  1.00  0.00     0.021 C 
ATOM      8  C   UNL     1      -3.117   0.524 -28.552  1.00  0.00    -0.026 C 
ATOM      9  C   UNL     1      -2.083   0.070 -29.592  1.00  0.00     0.012 C 
ATOM     10  C   UNL     1      -2.541   1.766 -27.842  1.00  0.00     0.012 C 
ENDROOT
TORSDOF 0
ENDMDL
MODEL 10
REMARK VINA RESULT:      -5.1      4.697      6.506
REMARK SMILES CC1=CC[C@@H]2C[C@H]1C2(C)C
REMARK SMILES IDX 1 1 2 2 3 3 4 4 5 5 6 6 7 7 8 8 9 9 10 10
REMARK H PARENT
ROOT
ATOM      1  C   UNL     1      -4.868   1.488 -31.021  1.00  0.00     0.039 C 
ATOM      2  C   UNL     1      -4.388   0.310 -30.244  1.00  0.00    -0.074 C 
ATOM      3  C   UNL     1      -3.465  -0.579 -30.664  1.00  0.00    -0.027 C 
ATOM      4  C   UNL     1      -3.036  -1.732 -29.778  1.00  0.00     0.031 C 
ATOM      5  C   UNL     1      -3.816  -1.668 -28.448  1.00  0.00    -0.000 C 
ATOM      6  C   UNL     1      -5.342  -1.473 -28.735  1.00  0.00     0.013 C 
ATOM      7  C   UNL     1      -4.969   0.049 -28.876  1.00  0.00     0.021 C 
ATOM      8  C   UNL     1      -3.873  -0.236 -27.753  1.00  0.00    -0.026 C 
ATOM      9  C   UNL     1      -2.588   0.605 -27.766  1.00  0.00     0.012 C 
ATOM     10  C   UNL     1      -4.411  -0.232 -26.308  1.00  0.00     0.012 C 
ENDROOT
TORSDOF 0
ENDMDL
