MODEL 1
REMARK VINA RESULT:      -5.7      0.000      0.000
REMARK SMILES CC1=CC[C@@H]2C[C@H]1C2(C)C
REMARK SMILES IDX 1 1 2 2 3 3 4 4 5 5 6 6 7 7 8 8 9 9 10 10
REMARK H PARENT
ROOT
ATOM      1  C   UNL     1      -7.238   2.167 -30.425  1.00  0.00     0.039 C 
ATOM      2  C   UNL     1      -7.835   1.606 -31.670  1.00  0.00    -0.074 C 
ATOM      3  C   UNL     1      -7.165   1.357 -32.813  1.00  0.00    -0.027 C 
ATOM      4  C   UNL     1      -7.874   0.764 -34.015  1.00  0.00     0.031 C 
ATOM      5  C   UNL     1      -9.364   0.550 -33.672  1.00  0.00    -0.000 C 
ATOM      6  C   UNL     1      -9.952   1.846 -33.022  1.00  0.00     0.013 C 
ATOM      7  C   UNL     1      -9.311   1.292 -31.696  1.00  0.00     0.021 C 
ATOM      8  C   UNL     1      -9.652  -0.155 -32.274  1.00  0.00    -0.026 C 
ATOM      9  C   UNL     1      -8.744  -1.325 -31.873  1.00  0.00     0.012 C 
ATOM     10  C   UNL     1     -11.110  -0.609 -32.059  1.00  0.00     0.012 C 
ENDROOT
TORSDOF 0
ENDMDL
MODEL 2
REMARK VINA RESULT:      -5.6      5.144      7.279
REMARK SMILES CC1=CC[C@@H]2C[C@H]1C2(C)C
REMARK SMILES IDX 1 1 2 2 3 3 4 4 5 5 6 6 7 7 8 8 9 9 10 10
REMARK H PARENT
ROOT
ATOM      1  C   UNL     1      -4.879  -0.877 -26.011  1.00  0.00     0.039 C 
ATOM      2  C   UNL     1      -4.083  -0.520 -27.220  1.00  0.00    -0.074 C 
ATOM      3  C   UNL     1      -3.817  -1.346 -28.251  1.00  0.00    -0.027 C 
ATOM      4  C   UNL     1      -3.011  -0.866 -29.442  1.00  0.00     0.031 C 
ATOM      5  C   UNL     1      -2.603   0.606 -29.220  1.00  0.00    -0.000 C 
ATOM      6  C   UNL     1      -1.997   0.780 -27.788  1.00  0.00     0.013 C 
ATOM      7  C   UNL     1      -3.499   0.867 -27.326  1.00  0.00     0.021 C 
ATOM      8  C   UNL     1      -3.767   1.575 -28.730  1.00  0.00    -0.026 C 
ATOM      9  C   UNL     1      -5.149   1.399 -29.374  1.00  0.00     0.012 C 
ATOM     10  C   UNL     1      -3.428   3.078 -28.771  1.00  0.00     0.012 C 
ENDROOT
TORSDOF 0
ENDMDL
MODEL 3
REMARK VINA RESULT:      -5.5      5.380      6.877
REMARK SMILES CC1=CC[C@@H]2C[C@H]1C2(C)C
REMARK SMILES IDX 1 1 2 2 3 3 4 4 5 5 6 6 7 7 8 8 9 9 10 10
REMARK H PARENT
ROOT
ATOM      1  C   UNL     1      -5.388   2.725 -29.184  1.00  0.00     0.039 C 
ATOM      2  C   UNL     1      -4.199   1.880 -28.880  1.00  0.00    -0.074 C 
ATOM      3  C   UNL     1      -3.093   2.294 -28.230  1.00  0.00    -0.027 C 
ATOM      4  C   UNL     1      -1.949   1.338 -27.957  1.00  0.00     0.031 C 
ATOM      5  C   UNL     1      -2.297  -0.050 -28.536  1.00  0.00    -0.000 C 
ATOM      6  C   UNL     1      -2.810   0.101 -30.007  1.00  0.00     0.013 C 
ATOM      7  C   UNL     1      -4.190   0.440 -29.332  1.00  0.00     0.021 C 
ATOM      8  C   UNL     1      -3.754  -0.590 -28.195  1.00  0.00    -0.026 C 
ATOM      9  C   UNL     1      -4.278  -0.358 -26.771  1.00  0.00     0.012 C 
ATOM     10  C   UNL     1      -3.999  -2.073 -28.539  1.00  0.00     0.012 C 
ENDROOT
TORSDOF 0
ENDMDL
MODEL 4
REMARK VINA RESULT:      -5.3      4.534      6.557
REMARK SMILES CC1=CC[C@@H]2C[C@H]1C2(C)C
REMARK SMILES IDX 1 1 2 2 3 3 4 4 5 5 6 6 7 7 8 8 9 9 10 10
REMARK H PARENT
ROOT
ATOM      1  C   UNL     1      -6.211  -0.154 -31.135  1.00  0.00     0.039 C 
ATOM      2  C   UNL     1      -4.863  -0.260 -30.507  1.00  0.00    -0.074 C 
ATOM      3  C   UNL     1      -3.690  -0.065 -31.141  1.00  0.00    -0.027 C 
ATOM      4  C   UNL     1      -2.376  -0.179 -30.395  1.00  0.00     0.031 C 
ATOM      5  C   UNL     1      -2.658  -0.540 -28.921  1.00  0.00    -0.000 C 
ATOM      6  C   UNL     1      -3.665  -1.736 -28.850  1.00  0.00     0.013 C 
ATOM      7  C   UNL     1      -4.764  -0.627 -29.047  1.00  0.00     0.021 C 
ATOM      8  C   UNL     1      -3.792   0.320 -28.209  1.00  0.00    -0.026 C 
ATOM      9  C   UNL     1      -3.824   1.826 -28.500  1.00  0.00     0.012 C 
ATOM     10  C   UNL     1      -3.882   0.145 -26.679  1.00  0.00     0.012 C 
ENDROOT
TORSDOF 0
ENDMDL
MODEL 5
REMARK VINA RESULT:      -5.3      5.613      6.943
REMARK SMILES CC1=CC[C@@H]2C[C@H]1C2(C)C
REMARK SMILES IDX 1 1 2 2 3 3 4 4 5 5 6 6 7 7 8 8 9 9 10 10
REMARK H PARENT
ROOT
ATOM      1  C   UNL     1      -3.023  -0.616 -31.232  1.00  0.00     0.039 C 
ATOM      2  C   UNL     1      -3.033  -0.158 -29.813  1.00  0.00    -0.074 C 
ATOM      3  C   UNL     1      -1.993   0.411 -29.170  1.00  0.00    -0.027 C 
ATOM      4  C   UNL     1      -2.123   0.858 -27.728  1.00  0.00     0.031 C 
ATOM      5  C   UNL     1      -3.546   0.537 -27.223  1.00  0.00    -0.000 C 
ATOM      6  C   UNL     1      -3.920  -0.938 -27.584  1.00  0.00     0.013 C 
ATOM      7  C   UNL     1      -4.286  -0.342 -28.994  1.00  0.00     0.021 C 
ATOM      8  C   UNL     1      -4.732   0.964 -28.195  1.00  0.00    -0.026 C 
ATOM      9  C   UNL     1      -4.611   2.320 -28.903  1.00  0.00     0.012 C 
ATOM     10  C   UNL     1      -6.143   0.893 -27.576  1.00  0.00     0.012 C 
ENDROOT
TORSDOF 0
ENDMDL
MODEL 6
REMARK VINA RESULT:      -5.2      1.018      3.341
REMARK SMILES CC1=CC[C@@H]2C[C@H]1C2(C)C
REMARK SMILES IDX 1 1 2 2 3 3 4 4 5 5 6 6 7 7 8 8 9 9 10 10
REMARK H PARENT
ROOT
ATOM      1  C   UNL     1      -9.591  -2.077 -31.205  1.00  0.00     0.039 C 
ATOM      2  C   UNL     1      -9.437  -0.695 -31.744  1.00  0.00    -0.074 C 
ATOM      3  C   UNL     1     -10.392   0.256 -31.735  1.00  0.00    -0.027 C 
ATOM      4  C   UNL     1     -10.117   1.638 -32.294  1.00  0.00     0.031 C 
ATOM      5  C   UNL     1      -8.668   1.692 -32.825  1.00  0.00    -0.000 C 
ATOM      6  C   UNL     1      -8.387   0.449 -33.732  1.00  0.00     0.013 C 
ATOM      7  C   UNL     1      -8.124  -0.297 -32.372  1.00  0.00     0.021 C 
ATOM      8  C   UNL     1      -7.558   1.100 -31.851  1.00  0.00    -0.026 C 
ATOM      9  C   UNL     1      -7.687   1.419 -30.356  1.00  0.00     0.012 C 
ATOM     10  C   UNL     1      -6.101   1.400 -32.261  1.00  0.00     0.012 C 
ENDROOT
TORSDOF 0
ENDMDL
MODEL 7
REMARK VINA RESULT:      -5.2      4.239      5.814
REMARK SMILES CC1=CC[C@@H]2C[C@H]1C2(C)C
REMARK SMILES IDX 1 1 2 2 3 3 4 4 5 5 6 6 7 7 8 8 9 9 10 10
REMARK H PARENT
ROOT
ATOM      1  C   UNL     1      -3.027   2.442 -28.304  1.00  0.00     0.039 C 
ATOM      2  C   UNL     1      -3.283   1.075 -28.842  1.00  0.00    -0.074 C 
ATOM      3  C   UNL     1      -2.877  -0.077 -28.271  1.00  0.00    -0.027 C 
ATOM      4  C   UNL     1      -3.213  -1.415 -28.899  1.00  0.00     0.031 C 
ATOM      5  C   UNL     1      -4.020  -1.181 -30.194  1.00  0.00    -0.000 C 
ATOM      6  C   UNL     1      -3.311  -0.099 -31.074  1.00  0.00     0.013 C 
ATOM      7  C   UNL     1      -4.044   0.930 -30.137  1.00  0.00     0.021 C 
ATOM      8  C   UNL     1      -5.222  -0.144 -30.076  1.00  0.00    -0.026 C 
ATOM      9  C   UNL     1      -6.082  -0.201 -28.805  1.00  0.00     0.012 C 
ATOM     10  C   UNL     1      -6.184  -0.117 -31.280  1.00  0.00     0.012 C 
ENDROOT
TORSDOF 0
ENDMDL
MODEL 8
REMARK VINA RESULT:      -5.1      4.697      6.544
REMARK SMILES CC1=CC[C@@H]2C[C@H]1C2(C)C
REMARK SMILES IDX 1 1 2 2 3 3 4 4 5 5 6 6 7 7 8 8 9 9 10 10
REMARK H PARENT
ROOT
ATOM      1  C   UNL     1      -5.557   1.122 -30.551  1.00  0.00     0.039 C 
ATOM      2  C   UNL     1      -4.952   0.039 -29.724  1.00  0.00    -0.074 C 
ATOM      3  C   UNL     1      -3.946  -0.769 -30.112  1.00  0.00    -0.027 C 
ATOM      4  C   UNL     1      -3.394  -1.827 -29.177  1.00  0.00     0.031 C 
ATOM      5  C   UNL     1      -4.167  -1.778 -27.842  1.00  0.00    -0.000 C 
ATOM      6  C   UNL     1      -5.707  -1.755 -28.120  1.00  0.00     0.013 C 
ATOM      7  C   UNL     1      -5.493  -0.212 -28.338  1.00  0.00     0.021 C 
ATOM      8  C   UNL     1      -4.366  -0.328 -27.216  1.00  0.00    -0.026 C 
ATOM      9  C   UNL     1      -3.176   0.639 -27.285  1.00  0.00     0.012 C 
ATOM     10  C   UNL     1      -4.892  -0.308 -25.767  1.00  0.00     0.012 C 
ENDROOT
TORSDOF 0
ENDMDL
MODEL 9
REMARK VINA RESULT:      -5.1      4.933      6.872
REMARK SMILES CC1=CC[C@@H]2C[C@H]1C2(C)C
REMARK SMILES IDX 1 1 2 2 3 3 4 4 5 5 6 6 7 7 8 8 9 9 10 10
REMARK H PARENT
ROOT
ATOM      1  C   UNL     1      -5.234  -1.189 -25.919  1.00  0.00     0.039 C 
ATOM      2  C   UNL     1      -5.025  -1.165 -27.395  1.00  0.00    -0.074 C 
ATOM      3  C   UNL     1      -6.002  -1.216 -28.322  1.00  0.00    -0.027 C 
ATOM      4  C   UNL     1      -5.673  -1.165 -29.800  1.00  0.00     0.031 C 
ATOM      5  C   UNL     1      -4.142  -1.066 -29.978  1.00  0.00    -0.000 C 
ATOM      6  C   UNL     1      -3.434  -2.143 -29.091  1.00  0.00     0.013 C 
ATOM      7  C   UNL     1      -3.617  -1.094 -27.933  1.00  0.00     0.021 C 
ATOM      8  C   UNL     1      -3.414   0.014 -29.063  1.00  0.00    -0.026 C 
ATOM      9  C   UNL     1      -4.110   1.369 -28.879  1.00  0.00     0.012 C 
ATOM     10  C   UNL     1      -1.944   0.298 -29.432  1.00  0.00     0.012 C 
ENDROOT
TORSDOF 0
ENDMDL
MODEL 10
REMARK VINA RESULT:      -5.0      4.635      7.002
REMARK SMILES CC1=CC[C@@H]2C[C@H]1C2(C)C
REMARK SMILES IDX 1 1 2 2 3 3 4 4 5 5 6 6 7 7 8 8 9 9 10 10
REMARK H PARENT
ROOT
ATOM      1  C   UNL     1      -6.843   0.441 -29.138  1.00  0.00     0.039 C 
ATOM      2  C   UNL     1      -5.547   0.441 -28.401  1.00  0.00    -0.074 C 
ATOM      3  C   UNL     1      -5.390   0.125 -27.100  1.00  0.00    -0.027 C 
ATOM      4  C   UNL     1      -4.017   0.139 -26.459  1.00  0.00     0.031 C 
ATOM      5  C   UNL     1      -2.968   0.559 -27.511  1.00  0.00    -0.000 C 
ATOM      6  C   UNL     1      -3.454   1.842 -28.263  1.00  0.00     0.013 C 
ATOM      7  C   UNL     1      -4.288   0.832 -29.135  1.00  0.00     0.021 C 
ATOM      8  C   UNL     1      -3.073  -0.178 -28.918  1.00  0.00    -0.026 C 
ATOM      9  C   UNL     1      -3.378  -1.682 -28.906  1.00  0.00     0.012 C 
ATOM     10  C   UNL     1      -1.874   0.041 -29.862  1.00  0.00     0.012 C 
ENDROOT
TORSDOF 0
ENDMDL
