MODEL 1
REMARK VINA RESULT:      -6.4      0.000      0.000
REMARK SMILES CCc1ccccc1
REMARK SMILES IDX 1 1 2 2 3 3 4 4 8 5 5 6 7 7 6 8
REMARK H PARENT
ROOT
ATOM      1  C   UNL     1       5.869  -2.112 -21.425  1.00  0.00     0.009 C 
ATOM      2  C   UNL     1       4.775  -2.772 -22.250  1.00  0.00     0.032 C 
ENDROOT
BRANCH   2   3
ATOM      3  C   UNL     1       4.456  -1.979 -23.492  1.00  0.00    -0.048 A 
ATOM      4  C   UNL     1       5.485  -1.454 -24.284  1.00  0.00     0.004 A 
ATOM      5  C   UNL     1       3.125  -1.733 -23.856  1.00  0.00     0.004 A 
ATOM      6  C   UNL     1       5.189  -0.706 -25.425  1.00  0.00     0.000 A 
ATOM      7  C   UNL     1       2.831  -0.985 -24.997  1.00  0.00     0.000 A 
ATOM      8  C   UNL     1       3.862  -0.473 -25.782  1.00  0.00     0.000 A 
ENDBRANCH   2   3
TORSDOF 1
ENDMDL
MODEL 2
REMARK VINA RESULT:      -6.1      1.177      3.347
REMARK SMILES CCc1ccccc1
REMARK SMILES IDX 1 1 2 2 3 3 4 4 8 5 5 6 7 7 6 8
REMARK H PARENT
ROOT
ATOM      1  C   UNL     1       6.514   0.520 -26.787  1.00  0.00     0.009 C 
ATOM      2  C   UNL     1       5.125  -0.063 -26.994  1.00  0.00     0.032 C 
ENDROOT
BRANCH   2   3
ATOM      3  C   UNL     1       4.587  -0.690 -25.733  1.00  0.00    -0.048 A 
ATOM      4  C   UNL     1       5.458  -1.257 -24.793  1.00  0.00     0.004 A 
ATOM      5  C   UNL     1       3.207  -0.739 -25.497  1.00  0.00     0.004 A 
ATOM      6  C   UNL     1       4.959  -1.852 -23.634  1.00  0.00     0.000 A 
ATOM      7  C   UNL     1       2.709  -1.335 -24.337  1.00  0.00     0.000 A 
ATOM      8  C   UNL     1       3.584  -1.890 -23.406  1.00  0.00     0.000 A 
ENDBRANCH   2   3
TORSDOF 1
ENDMDL
MODEL 3
REMARK VINA RESULT:      -6.0      4.527      7.153
REMARK SMILES CCc1ccccc1
REMARK SMILES IDX 1 1 2 2 3 3 4 4 8 5 5 6 7 7 6 8
REMARK H PARENT
ROOT
ATOM      1  C   UNL     1       6.341  -3.128 -20.476  1.00  0.00     0.009 C 
ATOM      2  C   UNL     1       6.350  -1.623 -20.259  1.00  0.00     0.032 C 
ENDROOT
BRANCH   2   3
ATOM      3  C   UNL     1       6.897  -1.255 -18.904  1.00  0.00    -0.048 A 
ATOM      4  C   UNL     1       6.186  -1.576 -17.740  1.00  0.00     0.004 A 
ATOM      5  C   UNL     1       8.110  -0.562 -18.791  1.00  0.00     0.004 A 
ATOM      6  C   UNL     1       6.685  -1.220 -16.485  1.00  0.00     0.000 A 
ATOM      7  C   UNL     1       8.607  -0.207 -17.536  1.00  0.00     0.000 A 
ATOM      8  C   UNL     1       7.896  -0.536 -16.384  1.00  0.00     0.000 A 
ENDBRANCH   2   3
TORSDOF 1
ENDMDL
MODEL 4
REMARK VINA RESULT:      -5.5     10.299     11.411
REMARK SMILES CCc1ccccc1
REMARK SMILES IDX 1 1 2 2 3 3 4 4 8 5 5 6 7 7 6 8
REMARK H PARENT
ROOT
ATOM      1  C   UNL     1      -4.833  -9.429 -27.085  1.00  0.00     0.009 C 
ATOM      2  C   UNL     1      -3.571  -8.599 -27.262  1.00  0.00     0.032 C 
ENDROOT
BRANCH   2   3
ATOM      3  C   UNL     1      -2.325  -9.435 -27.123  1.00  0.00    -0.048 A 
ATOM      4  C   UNL     1      -1.248  -8.982 -26.351  1.00  0.00     0.004 A 
ATOM      5  C   UNL     1      -2.217 -10.665 -27.787  1.00  0.00     0.004 A 
ATOM      6  C   UNL     1      -0.087  -9.749 -26.236  1.00  0.00     0.000 A 
ATOM      7  C   UNL     1      -1.055 -11.430 -27.672  1.00  0.00     0.000 A 
ATOM      8  C   UNL     1       0.008 -10.974 -26.896  1.00  0.00     0.000 A 
ENDBRANCH   2   3
TORSDOF 1
ENDMDL
MODEL 5
REMARK VINA RESULT:      -5.3      2.165      3.529
REMARK SMILES CCc1ccccc1
REMARK SMILES IDX 1 1 2 2 3 3 4 4 8 5 5 6 7 7 6 8
REMARK H PARENT
ROOT
ATOM      1  C   UNL     1       4.842  -1.731 -24.032  1.00  0.00     0.009 C 
ATOM      2  C   UNL     1       4.172  -1.282 -25.321  1.00  0.00     0.032 C 
ENDROOT
BRANCH   2   3
ATOM      3  C   UNL     1       5.100  -0.460 -26.178  1.00  0.00    -0.048 A 
ATOM      4  C   UNL     1       5.934   0.505 -25.600  1.00  0.00     0.004 A 
ATOM      5  C   UNL     1       5.120  -0.631 -27.570  1.00  0.00     0.004 A 
ATOM      6  C   UNL     1       6.782   1.278 -26.396  1.00  0.00     0.000 A 
ATOM      7  C   UNL     1       5.967   0.143 -28.364  1.00  0.00     0.000 A 
ATOM      8  C   UNL     1       6.798   1.096 -27.778  1.00  0.00     0.000 A 
ENDBRANCH   2   3
TORSDOF 1
ENDMDL
MODEL 6
REMARK VINA RESULT:      -5.3     10.031     10.764
REMARK SMILES CCc1ccccc1
REMARK SMILES IDX 1 1 2 2 3 3 4 4 8 5 5 6 7 7 6 8
REMARK H PARENT
ROOT
ATOM      1  C   UNL     1       0.737 -12.110 -25.510  1.00  0.00     0.009 C 
ATOM      2  C   UNL     1       0.573 -10.598 -25.526  1.00  0.00     0.032 C 
ENDROOT
BRANCH   2   3
ATOM      3  C   UNL     1      -0.595 -10.170 -26.376  1.00  0.00    -0.048 A 
ATOM      4  C   UNL     1      -1.098 -11.017 -27.372  1.00  0.00     0.004 A 
ATOM      5  C   UNL     1      -1.177  -8.906 -26.201  1.00  0.00     0.004 A 
ATOM      6  C   UNL     1      -2.169 -10.613 -28.171  1.00  0.00     0.000 A 
ATOM      7  C   UNL     1      -2.248  -8.504 -27.001  1.00  0.00     0.000 A 
ATOM      8  C   UNL     1      -2.744  -9.357 -27.984  1.00  0.00     0.000 A 
ENDBRANCH   2   3
TORSDOF 1
ENDMDL
MODEL 7
REMARK VINA RESULT:      -5.3     10.017     10.751
REMARK SMILES CCc1ccccc1
REMARK SMILES IDX 1 1 2 2 3 3 4 4 8 5 5 6 7 7 6 8
REMARK H PARENT
ROOT
ATOM      1  C   UNL     1       0.721 -12.102 -25.526  1.00  0.00     0.009 C 
ATOM      2  C   UNL     1       0.545 -10.592 -25.500  1.00  0.00     0.032 C 
ENDROOT
BRANCH   2   3
ATOM      3  C   UNL     1      -0.597 -10.145 -26.377  1.00  0.00    -0.048 A 
ATOM      4  C   UNL     1      -1.157  -8.870 -26.221  1.00  0.00     0.004 A 
ATOM      5  C   UNL     1      -1.133 -11.009 -27.342  1.00  0.00     0.004 A 
ATOM      6  C   UNL     1      -2.225  -8.463 -27.022  1.00  0.00     0.000 A 
ATOM      7  C   UNL     1      -2.201 -10.601 -28.142  1.00  0.00     0.000 A 
ATOM      8  C   UNL     1      -2.746  -9.329 -27.983  1.00  0.00     0.000 A 
ENDBRANCH   2   3
TORSDOF 1
ENDMDL
MODEL 8
REMARK VINA RESULT:      -5.2      5.845      7.656
REMARK SMILES CCc1ccccc1
REMARK SMILES IDX 1 1 2 2 3 3 4 4 8 5 5 6 7 7 6 8
REMARK H PARENT
ROOT
ATOM      1  C   UNL     1      10.361  -0.172 -15.837  1.00  0.00     0.009 C 
ATOM      2  C   UNL     1       9.280   0.669 -16.496  1.00  0.00     0.032 C 
ENDROOT
BRANCH   2   3
ATOM      3  C   UNL     1       8.255  -0.185 -17.198  1.00  0.00    -0.048 A 
ATOM      4  C   UNL     1       8.327  -0.386 -18.583  1.00  0.00     0.004 A 
ATOM      5  C   UNL     1       7.201  -0.765 -16.480  1.00  0.00     0.004 A 
ATOM      6  C   UNL     1       7.368  -1.163 -19.236  1.00  0.00     0.000 A 
ATOM      7  C   UNL     1       6.243  -1.541 -17.134  1.00  0.00     0.000 A 
ATOM      8  C   UNL     1       6.327  -1.741 -18.511  1.00  0.00     0.000 A 
ENDBRANCH   2   3
TORSDOF 1
ENDMDL
MODEL 9
REMARK VINA RESULT:      -5.2      5.849      7.780
REMARK SMILES CCc1ccccc1
REMARK SMILES IDX 1 1 2 2 3 3 4 4 8 5 5 6 7 7 6 8
REMARK H PARENT
ROOT
ATOM      1  C   UNL     1      10.340  -0.203 -15.814  1.00  0.00     0.009 C 
ATOM      2  C   UNL     1       9.319   0.660 -16.538  1.00  0.00     0.032 C 
ENDROOT
BRANCH   2   3
ATOM      3  C   UNL     1       8.262  -0.173 -17.217  1.00  0.00    -0.048 A 
ATOM      4  C   UNL     1       7.230  -0.757 -16.471  1.00  0.00     0.004 A 
ATOM      5  C   UNL     1       8.314  -0.397 -18.599  1.00  0.00     0.004 A 
ATOM      6  C   UNL     1       6.261  -1.542 -17.098  1.00  0.00     0.000 A 
ATOM      7  C   UNL     1       7.344  -1.183 -19.225  1.00  0.00     0.000 A 
ATOM      8  C   UNL     1       6.318  -1.754 -18.475  1.00  0.00     0.000 A 
ENDBRANCH   2   3
TORSDOF 1
ENDMDL
MODEL 10
REMARK VINA RESULT:      -5.1      0.874      3.888
REMARK SMILES CCc1ccccc1
REMARK SMILES IDX 1 1 2 2 3 3 4 4 8 5 5 6 7 7 6 8
REMARK H PARENT
ROOT
ATOM      1  C   UNL     1       3.593  -0.911 -25.511  1.00  0.00     0.009 C 
ATOM      2  C   UNL     1       4.989  -0.956 -24.911  1.00  0.00     0.032 C 
ENDROOT
BRANCH   2   3
ATOM      3  C   UNL     1       5.026  -1.762 -23.638  1.00  0.00    -0.048 A 
ATOM      4  C   UNL     1       4.121  -2.813 -23.435  1.00  0.00     0.004 A 
ATOM      5  C   UNL     1       5.947  -1.454 -22.627  1.00  0.00     0.004 A 
ATOM      6  C   UNL     1       4.144  -3.548 -22.249  1.00  0.00     0.000 A 
ATOM      7  C   UNL     1       5.969  -2.190 -21.442  1.00  0.00     0.000 A 
ATOM      8  C   UNL     1       5.069  -3.237 -21.253  1.00  0.00     0.000 A 
ENDBRANCH   2   3
TORSDOF 1
ENDMDL
