MODEL 1
REMARK VINA RESULT:      -7.3      0.000      0.000
REMARK SMILES COC(=O)/C=C/c1ccc(O)cc1
REMARK SMILES IDX 5 1 6 2 3 3 4 4 2 5 1 6 7 7 8 8 13 9 9 10 12 11 10 12 11 13
REMARK H PARENT 11 14
ROOT
ATOM      1  C   UNL     1       5.587  -1.611 -21.334  1.00  0.00     0.094 C 
ATOM      2  C   UNL     1       6.170  -2.286 -20.333  1.00  0.00     0.015 C 
ENDROOT
BRANCH   1   3
ATOM      3  C   UNL     1       5.061  -2.340 -22.506  1.00  0.00     0.330 C 
ATOM      4  O   UNL     1       4.336  -3.319 -22.462  1.00  0.00    -0.247 OA
BRANCH   3   5
ATOM      5  O   UNL     1       5.523  -1.725 -23.623  1.00  0.00    -0.466 OA
ATOM      6  C   UNL     1       4.508  -1.453 -24.590  1.00  0.00     0.282 C 
ENDBRANCH   3   5
ENDBRANCH   1   3
BRANCH   2   7
ATOM      7  C   UNL     1       6.736  -1.655 -19.133  1.00  0.00    -0.025 A 
ATOM      8  C   UNL     1       7.814  -0.760 -19.190  1.00  0.00     0.012 A 
ATOM      9  C   UNL     1       6.140  -1.914 -17.890  1.00  0.00     0.012 A 
ATOM     10  C   UNL     1       8.304  -0.156 -18.028  1.00  0.00     0.047 A 
ATOM     11  C   UNL     1       6.628  -1.312 -16.729  1.00  0.00     0.047 A 
ATOM     12  C   UNL     1       7.707  -0.441 -16.805  1.00  0.00     0.115 A 
BRANCH  12  13
ATOM     13  O   UNL     1       8.150   0.125 -15.647  1.00  0.00    -0.508 OA
ATOM     14  H   UNL     1       7.458   0.714 -15.303  1.00  0.00     0.293 HD
ENDBRANCH  12  13
ENDBRANCH   2   7
TORSDOF 4
ENDMDL
MODEL 2
REMARK VINA RESULT:      -6.4      1.578      2.399
REMARK SMILES COC(=O)/C=C/c1ccc(O)cc1
REMARK SMILES IDX 5 1 6 2 3 3 4 4 2 5 1 6 7 7 8 8 13 9 9 10 12 11 10 12 11 13
REMARK H PARENT 11 14
ROOT
ATOM      1  C   UNL     1       4.742  -1.869 -22.719  1.00  0.00     0.094 C 
ATOM      2  C   UNL     1       5.891  -2.180 -22.102  1.00  0.00     0.015 C 
ENDROOT
BRANCH   1   3
ATOM      3  C   UNL     1       4.687  -1.826 -24.195  1.00  0.00     0.330 C 
ATOM      4  O   UNL     1       3.979  -2.528 -24.896  1.00  0.00    -0.247 OA
BRANCH   3   5
ATOM      5  O   UNL     1       5.554  -0.872 -24.617  1.00  0.00    -0.466 OA
ATOM      6  C   UNL     1       5.183  -0.269 -25.857  1.00  0.00     0.282 C 
ENDBRANCH   3   5
ENDBRANCH   1   3
BRANCH   2   7
ATOM      7  C   UNL     1       6.053  -2.237 -20.643  1.00  0.00    -0.025 A 
ATOM      8  C   UNL     1       5.868  -3.418 -19.910  1.00  0.00     0.012 A 
ATOM      9  C   UNL     1       6.464  -1.080 -19.964  1.00  0.00     0.012 A 
ATOM     10  C   UNL     1       6.063  -3.437 -18.524  1.00  0.00     0.047 A 
ATOM     11  C   UNL     1       6.659  -1.098 -18.582  1.00  0.00     0.047 A 
ATOM     12  C   UNL     1       6.455  -2.274 -17.873  1.00  0.00     0.115 A 
BRANCH  12  13
ATOM     13  O   UNL     1       6.657  -2.247 -16.525  1.00  0.00    -0.508 OA
ATOM     14  H   UNL     1       7.497  -1.793 -16.345  1.00  0.00     0.293 HD
ENDBRANCH  12  13
ENDBRANCH   2   7
TORSDOF 4
ENDMDL
MODEL 3
REMARK VINA RESULT:      -6.2      1.677      2.482
REMARK SMILES COC(=O)/C=C/c1ccc(O)cc1
REMARK SMILES IDX 5 1 6 2 3 3 4 4 2 5 1 6 7 7 8 8 13 9 9 10 12 11 10 12 11 13
REMARK H PARENT 11 14
ROOT
ATOM      1  C   UNL     1       6.566  -1.659 -19.316  1.00  0.00     0.094 C 
ATOM      2  C   UNL     1       7.821  -1.276 -19.041  1.00  0.00     0.015 C 
ENDROOT
BRANCH   1   3
ATOM      3  C   UNL     1       6.287  -2.447 -20.534  1.00  0.00     0.330 C 
ATOM      4  O   UNL     1       6.563  -3.624 -20.693  1.00  0.00    -0.247 OA
BRANCH   3   5
ATOM      5  O   UNL     1       5.672  -1.632 -21.427  1.00  0.00    -0.466 OA
ATOM      6  C   UNL     1       5.031  -2.331 -22.495  1.00  0.00     0.282 C 
ENDBRANCH   3   5
ENDBRANCH   1   3
BRANCH   2   7
ATOM      7  C   UNL     1       8.201  -0.480 -17.866  1.00  0.00    -0.025 A 
ATOM      8  C   UNL     1       9.337  -0.769 -17.096  1.00  0.00     0.012 A 
ATOM      9  C   UNL     1       7.431   0.644 -17.535  1.00  0.00     0.012 A 
ATOM     10  C   UNL     1       9.682   0.032 -16.002  1.00  0.00     0.047 A 
ATOM     11  C   UNL     1       7.772   1.444 -16.443  1.00  0.00     0.047 A 
ATOM     12  C   UNL     1       8.893   1.132 -15.684  1.00  0.00     0.115 A 
BRANCH  12  13
ATOM     13  O   UNL     1       9.192   1.940 -14.628  1.00  0.00    -0.508 OA
ATOM     14  H   UNL     1      10.139   2.153 -14.657  1.00  0.00     0.293 HD
ENDBRANCH  12  13
ENDBRANCH   2   7
TORSDOF 4
ENDMDL
MODEL 4
REMARK VINA RESULT:      -6.0     14.099     18.602
REMARK SMILES COC(=O)/C=C/c1ccc(O)cc1
REMARK SMILES IDX 5 1 6 2 3 3 4 4 2 5 1 6 7 7 8 8 13 9 9 10 12 11 10 12 11 13
REMARK H PARENT 11 14
ROOT
ATOM      1  C   UNL     1      -5.285   0.043 -31.072  1.00  0.00     0.094 C 
ATOM      2  C   UNL     1      -5.715   0.842 -32.059  1.00  0.00     0.015 C 
ENDROOT
BRANCH   1   3
ATOM      3  C   UNL     1      -3.836  -0.154 -30.862  1.00  0.00     0.330 C 
ATOM      4  O   UNL     1      -3.134  -0.939 -31.476  1.00  0.00    -0.247 OA
BRANCH   3   5
ATOM      5  O   UNL     1      -3.438   0.690 -29.878  1.00  0.00    -0.466 OA
ATOM      6  C   UNL     1      -2.287   0.235 -29.164  1.00  0.00     0.282 C 
ENDBRANCH   3   5
ENDBRANCH   1   3
BRANCH   2   7
ATOM      7  C   UNL     1      -7.131   1.093 -32.359  1.00  0.00    -0.025 A 
ATOM      8  C   UNL     1      -7.711   0.760 -33.592  1.00  0.00     0.012 A 
ATOM      9  C   UNL     1      -7.948   1.633 -31.355  1.00  0.00     0.012 A 
ATOM     10  C   UNL     1      -9.071   0.987 -33.827  1.00  0.00     0.047 A 
ATOM     11  C   UNL     1      -9.305   1.861 -31.588  1.00  0.00     0.047 A 
ATOM     12  C   UNL     1      -9.856   1.539 -32.822  1.00  0.00     0.115 A 
BRANCH  12  13
ATOM     13  O   UNL     1     -11.186   1.776 -33.006  1.00  0.00    -0.508 OA
ATOM     14  H   UNL     1     -11.378   1.742 -33.958  1.00  0.00     0.293 HD
ENDBRANCH  12  13
ENDBRANCH   2   7
TORSDOF 4
ENDMDL
MODEL 5
REMARK VINA RESULT:      -5.9     12.770     13.975
REMARK SMILES COC(=O)/C=C/c1ccc(O)cc1
REMARK SMILES IDX 5 1 6 2 3 3 4 4 2 5 1 6 7 7 8 8 13 9 9 10 12 11 10 12 11 13
REMARK H PARENT 11 14
ROOT
ATOM      1  C   UNL     1      -5.763  -0.393 -25.071  1.00  0.00     0.094 C 
ATOM      2  C   UNL     1      -5.264  -1.259 -25.966  1.00  0.00     0.015 C 
ENDROOT
BRANCH   1   3
ATOM      3  C   UNL     1      -6.749  -0.853 -24.072  1.00  0.00     0.330 C 
ATOM      4  O   UNL     1      -6.853  -1.993 -23.655  1.00  0.00    -0.247 OA
BRANCH   3   5
ATOM      5  O   UNL     1      -7.502   0.215 -23.708  1.00  0.00    -0.466 OA
ATOM      6  C   UNL     1      -8.626  -0.127 -22.895  1.00  0.00     0.282 C 
ENDBRANCH   3   5
ENDBRANCH   1   3
BRANCH   2   7
ATOM      7  C   UNL     1      -4.291  -0.900 -27.006  1.00  0.00    -0.025 A 
ATOM      8  C   UNL     1      -4.058  -1.705 -28.130  1.00  0.00     0.012 A 
ATOM      9  C   UNL     1      -3.610   0.322 -26.901  1.00  0.00     0.012 A 
ATOM     10  C   UNL     1      -3.146  -1.313 -29.115  1.00  0.00     0.047 A 
ATOM     11  C   UNL     1      -2.698   0.715 -27.882  1.00  0.00     0.047 A 
ATOM     12  C   UNL     1      -2.471  -0.105 -28.979  1.00  0.00     0.115 A 
BRANCH  12  13
ATOM     13  O   UNL     1      -1.574   0.318 -29.915  1.00  0.00    -0.508 OA
ATOM     14  H   UNL     1      -0.698  -0.037 -29.689  1.00  0.00     0.293 HD
ENDBRANCH  12  13
ENDBRANCH   2   7
TORSDOF 4
ENDMDL
MODEL 6
REMARK VINA RESULT:      -5.8     13.947     18.411
REMARK SMILES COC(=O)/C=C/c1ccc(O)cc1
REMARK SMILES IDX 5 1 6 2 3 3 4 4 2 5 1 6 7 7 8 8 13 9 9 10 12 11 10 12 11 13
REMARK H PARENT 11 14
ROOT
ATOM      1  C   UNL     1      -5.092   0.124 -31.215  1.00  0.00     0.094 C 
ATOM      2  C   UNL     1      -6.303  -0.411 -31.002  1.00  0.00     0.015 C 
ENDROOT
BRANCH   1   3
ATOM      3  C   UNL     1      -3.891  -0.518 -30.641  1.00  0.00     0.330 C 
ATOM      4  O   UNL     1      -3.570  -1.683 -30.798  1.00  0.00    -0.247 OA
BRANCH   3   5
ATOM      5  O   UNL     1      -3.223   0.417 -29.920  1.00  0.00    -0.466 OA
ATOM      6  C   UNL     1      -2.634  -0.095 -28.724  1.00  0.00     0.282 C 
ENDBRANCH   3   5
ENDBRANCH   1   3
BRANCH   2   7
ATOM      7  C   UNL     1      -7.557   0.157 -31.516  1.00  0.00    -0.025 A 
ATOM      8  C   UNL     1      -8.777   0.026 -30.837  1.00  0.00     0.012 A 
ATOM      9  C   UNL     1      -7.522   0.905 -32.701  1.00  0.00     0.012 A 
ATOM     10  C   UNL     1      -9.943   0.608 -31.344  1.00  0.00     0.047 A 
ATOM     11  C   UNL     1      -8.685   1.486 -33.210  1.00  0.00     0.047 A 
ATOM     12  C   UNL     1      -9.886   1.332 -32.530  1.00  0.00     0.115 A 
BRANCH  12  13
ATOM     13  O   UNL     1     -10.997   1.917 -33.061  1.00  0.00    -0.508 OA
ATOM     14  H   UNL     1     -11.526   1.234 -33.506  1.00  0.00     0.293 HD
ENDBRANCH  12  13
ENDBRANCH   2   7
TORSDOF 4
ENDMDL
MODEL 7
REMARK VINA RESULT:      -5.8     12.827     13.921
REMARK SMILES COC(=O)/C=C/c1ccc(O)cc1
REMARK SMILES IDX 5 1 6 2 3 3 4 4 2 5 1 6 7 7 8 8 13 9 9 10 12 11 10 12 11 13
REMARK H PARENT 11 14
ROOT
ATOM      1  C   UNL     1      -5.687  -0.453 -25.042  1.00  0.00     0.094 C 
ATOM      2  C   UNL     1      -5.286  -1.235 -26.055  1.00  0.00     0.015 C 
ENDROOT
BRANCH   1   3
ATOM      3  C   UNL     1      -6.676  -0.958 -24.068  1.00  0.00     0.330 C 
ATOM      4  O   UNL     1      -6.786  -2.118 -23.711  1.00  0.00    -0.247 OA
BRANCH   3   5
ATOM      5  O   UNL     1      -7.423   0.093 -23.648  1.00  0.00    -0.466 OA
ATOM      6  C   UNL     1      -7.955   0.880 -24.715  1.00  0.00     0.282 C 
ENDBRANCH   3   5
ENDBRANCH   1   3
BRANCH   2   7
ATOM      7  C   UNL     1      -4.321  -0.822 -27.083  1.00  0.00    -0.025 A 
ATOM      8  C   UNL     1      -3.622   0.392 -27.016  1.00  0.00     0.012 A 
ATOM      9  C   UNL     1      -4.046  -1.700 -28.141  1.00  0.00     0.012 A 
ATOM     10  C   UNL     1      -2.687   0.733 -27.999  1.00  0.00     0.047 A 
ATOM     11  C   UNL     1      -3.114  -1.361 -29.124  1.00  0.00     0.047 A 
ATOM     12  C   UNL     1      -2.444  -0.147 -29.047  1.00  0.00     0.115 A 
BRANCH  12  13
ATOM     13  O   UNL     1      -1.541   0.144 -30.026  1.00  0.00    -0.508 OA
ATOM     14  H   UNL     1      -1.732   1.032 -30.371  1.00  0.00     0.293 HD
ENDBRANCH  12  13
ENDBRANCH   2   7
TORSDOF 4
ENDMDL
MODEL 8
REMARK VINA RESULT:      -5.8     12.816     14.279
REMARK SMILES COC(=O)/C=C/c1ccc(O)cc1
REMARK SMILES IDX 5 1 6 2 3 3 4 4 2 5 1 6 7 7 8 8 13 9 9 10 12 11 10 12 11 13
REMARK H PARENT 11 14
ROOT
ATOM      1  C   UNL     1      -5.323  -0.821 -26.012  1.00  0.00     0.094 C 
ATOM      2  C   UNL     1      -4.166  -0.337 -26.486  1.00  0.00     0.015 C 
ENDROOT
BRANCH   1   3
ATOM      3  C   UNL     1      -5.636  -0.704 -24.572  1.00  0.00     0.330 C 
ATOM      4  O   UNL     1      -5.227   0.172 -23.830  1.00  0.00    -0.247 OA
BRANCH   3   5
ATOM      5  O   UNL     1      -6.452  -1.734 -24.238  1.00  0.00    -0.466 OA
ATOM      6  C   UNL     1      -7.531  -1.356 -23.383  1.00  0.00     0.282 C 
ENDBRANCH   3   5
ENDBRANCH   1   3
BRANCH   2   7
ATOM      7  C   UNL     1      -3.755  -0.415 -27.894  1.00  0.00    -0.025 A 
ATOM      8  C   UNL     1      -2.634   0.266 -28.391  1.00  0.00     0.012 A 
ATOM      9  C   UNL     1      -4.478  -1.246 -28.762  1.00  0.00     0.012 A 
ATOM     10  C   UNL     1      -2.258   0.141 -29.732  1.00  0.00     0.047 A 
ATOM     11  C   UNL     1      -4.104  -1.372 -30.102  1.00  0.00     0.047 A 
ATOM     12  C   UNL     1      -3.000  -0.677 -30.577  1.00  0.00     0.115 A 
BRANCH  12  13
ATOM     13  O   UNL     1      -2.669  -0.829 -31.891  1.00  0.00    -0.508 OA
ATOM     14  H   UNL     1      -1.702  -0.888 -31.963  1.00  0.00     0.293 HD
ENDBRANCH  12  13
ENDBRANCH   2   7
TORSDOF 4
ENDMDL
MODEL 9
REMARK VINA RESULT:      -5.7     12.434     14.991
REMARK SMILES COC(=O)/C=C/c1ccc(O)cc1
REMARK SMILES IDX 5 1 6 2 3 3 4 4 2 5 1 6 7 7 8 8 13 9 9 10 12 11 10 12 11 13
REMARK H PARENT 11 14
ROOT
ATOM      1  C   UNL     1      -6.631  -2.537 -29.638  1.00  0.00     0.094 C 
ATOM      2  C   UNL     1      -6.137  -2.219 -28.433  1.00  0.00     0.015 C 
ENDROOT
BRANCH   1   3
ATOM      3  C   UNL     1      -7.797  -3.438 -29.743  1.00  0.00     0.330 C 
ATOM      4  O   UNL     1      -7.954  -4.294 -30.596  1.00  0.00    -0.247 OA
BRANCH   3   5
ATOM      5  O   UNL     1      -8.645  -3.141 -28.727  1.00  0.00    -0.466 OA
ATOM      6  C   UNL     1      -9.408  -4.260 -28.273  1.00  0.00     0.282 C 
ENDBRANCH   3   5
ENDBRANCH   1   3
BRANCH   2   7
ATOM      7  C   UNL     1      -4.975  -1.346 -28.222  1.00  0.00    -0.025 A 
ATOM      8  C   UNL     1      -4.896  -0.443 -27.151  1.00  0.00     0.012 A 
ATOM      9  C   UNL     1      -3.879  -1.459 -29.090  1.00  0.00     0.012 A 
ATOM     10  C   UNL     1      -3.758   0.350 -26.968  1.00  0.00     0.047 A 
ATOM     11  C   UNL     1      -2.743  -0.668 -28.909  1.00  0.00     0.047 A 
ATOM     12  C   UNL     1      -2.692   0.231 -27.852  1.00  0.00     0.115 A 
BRANCH  12  13
ATOM     13  O   UNL     1      -1.563   0.982 -27.710  1.00  0.00    -0.508 OA
ATOM     14  H   UNL     1      -0.847   0.567 -28.220  1.00  0.00     0.293 HD
ENDBRANCH  12  13
ENDBRANCH   2   7
TORSDOF 4
ENDMDL
MODEL 10
REMARK VINA RESULT:      -5.7     14.678     19.137
REMARK SMILES COC(=O)/C=C/c1ccc(O)cc1
REMARK SMILES IDX 5 1 6 2 3 3 4 4 2 5 1 6 7 7 8 8 13 9 9 10 12 11 10 12 11 13
REMARK H PARENT 11 14
ROOT
ATOM      1  C   UNL     1      -6.290   2.525 -30.441  1.00  0.00     0.094 C 
ATOM      2  C   UNL     1      -6.485   2.014 -31.666  1.00  0.00     0.015 C 
ENDROOT
BRANCH   1   3
ATOM      3  C   UNL     1      -4.962   3.053 -30.067  1.00  0.00     0.330 C 
ATOM      4  O   UNL     1      -4.385   3.972 -30.622  1.00  0.00    -0.247 OA
BRANCH   3   5
ATOM      5  O   UNL     1      -4.512   2.338 -29.006  1.00  0.00    -0.466 OA
ATOM      6  C   UNL     1      -3.506   1.382 -29.344  1.00  0.00     0.282 C 
ENDBRANCH   3   5
ENDBRANCH   1   3
BRANCH   2   7
ATOM      7  C   UNL     1      -7.761   1.453 -32.131  1.00  0.00    -0.025 A 
ATOM      8  C   UNL     1      -7.887   0.783 -33.356  1.00  0.00     0.012 A 
ATOM      9  C   UNL     1      -8.882   1.541 -31.292  1.00  0.00     0.012 A 
ATOM     10  C   UNL     1      -9.113   0.235 -33.748  1.00  0.00     0.047 A 
ATOM     11  C   UNL     1     -10.106   0.996 -31.682  1.00  0.00     0.047 A 
ATOM     12  C   UNL     1     -10.214   0.349 -32.907  1.00  0.00     0.115 A 
BRANCH  12  13
ATOM     13  O   UNL     1     -11.427  -0.170 -33.248  1.00  0.00    -0.508 OA
ATOM     14  H   UNL     1     -12.038   0.562 -33.433  1.00  0.00     0.293 HD
ENDBRANCH  12  13
ENDBRANCH   2   7
TORSDOF 4
ENDMDL
