MODEL 1
REMARK VINA RESULT:      -8.3      0.000      0.000
REMARK SMILES O=C(/C=C/c1ccc(O)c(O)c1)O[C@@H]1C[C@](O)(C(=O)O)C[C@@H](O)[C@H]1O
REMARK SMILES IDX 2 1 1 2 13 3 14 4 21 5 22 6 16 7 24 8 15 9 23 10 17 12 18 14
REMARK SMILES IDX 19 15 20 16 25 18 3 20 4 21 5 22 12 23 6 24 10 25 7 26 8 27
REMARK SMILES IDX 11 28 9 30
REMARK H PARENT 23 11 17 13 20 17 25 19 11 29 9 31
ROOT
ATOM      1  C   UNL     1      -5.039   3.029 -30.365  1.00  0.00     0.331 C 
ATOM      2  O   UNL     1      -4.900   4.236 -30.502  1.00  0.00    -0.247 OA
ENDROOT
BRANCH   1   3
ATOM      3  O   UNL     1      -4.077   2.161 -29.974  1.00  0.00    -0.456 OA
BRANCH   3   4
ATOM      4  C   UNL     1      -4.533   0.837 -29.623  1.00  0.00     0.211 C 
ATOM      5  C   UNL     1      -3.981  -1.721 -28.209  1.00  0.00     0.082 C 
ATOM      6  C   UNL     1      -3.853  -1.618 -29.728  1.00  0.00     0.150 C 
ATOM      7  C   UNL     1      -4.971  -0.692 -27.648  1.00  0.00     0.167 C 
ATOM      8  C   UNL     1      -3.535  -0.187 -30.195  1.00  0.00     0.184 C 
ATOM      9  C   UNL     1      -4.614   0.724 -28.096  1.00  0.00     0.095 C 
BRANCH   6  10
ATOM     10  O   UNL     1      -5.061  -2.051 -30.375  1.00  0.00    -0.390 OA
ATOM     11  H   UNL     1      -5.427  -2.808 -29.871  1.00  0.00     0.211 HD
ENDBRANCH   6  10
BRANCH   7  12
ATOM     12  O   UNL     1      -6.291  -1.031 -28.129  1.00  0.00    -0.378 OA
ATOM     13  H   UNL     1      -6.939  -0.597 -27.534  1.00  0.00     0.212 HD
ENDBRANCH   7  12
BRANCH   7  14
ATOM     14  C   UNL     1      -4.972  -0.796 -26.115  1.00  0.00     0.335 C 
ATOM     15  O   UNL     1      -5.411  -1.738 -25.475  1.00  0.00    -0.249 OA
BRANCH  14  16
ATOM     16  O   UNL     1      -4.439   0.310 -25.538  1.00  0.00    -0.479 OA
ATOM     17  H   UNL     1      -5.138   0.995 -25.427  1.00  0.00     0.296 HD
ENDBRANCH  14  16
ENDBRANCH   7  14
BRANCH   8  18
ATOM     18  O   UNL     1      -3.578  -0.151 -31.628  1.00  0.00    -0.387 OA
ATOM     19  H   UNL     1      -3.574   0.798 -31.872  1.00  0.00     0.211 HD
ENDBRANCH   8  18
ENDBRANCH   3   4
ENDBRANCH   1   3
BRANCH   1  20
ATOM     20  C   UNL     1      -6.315   2.346 -30.662  1.00  0.00     0.094 C 
ATOM     21  C   UNL     1      -6.751   2.071 -31.902  1.00  0.00     0.016 C 
BRANCH  21  22
ATOM     22  C   UNL     1      -8.017   1.380 -32.176  1.00  0.00    -0.021 A 
ATOM     23  C   UNL     1      -8.955   1.120 -31.163  1.00  0.00     0.058 A 
ATOM     24  C   UNL     1      -8.318   1.024 -33.500  1.00  0.00     0.012 A 
ATOM     25  C   UNL     1     -10.155   0.492 -31.484  1.00  0.00     0.157 A 
ATOM     26  C   UNL     1      -9.525   0.391 -33.812  1.00  0.00     0.051 A 
ATOM     27  C   UNL     1     -10.432   0.129 -32.798  1.00  0.00     0.157 A 
BRANCH  25  28
ATOM     28  O   UNL     1     -11.101   0.214 -30.536  1.00  0.00    -0.504 OA
ATOM     29  H   UNL     1     -10.791   0.562 -29.683  1.00  0.00     0.293 HD
ENDBRANCH  25  28
BRANCH  27  30
ATOM     30  O   UNL     1     -11.612  -0.486 -33.103  1.00  0.00    -0.504 OA
ATOM     31  H   UNL     1     -12.019  -0.680 -32.234  1.00  0.00     0.293 HD
ENDBRANCH  27  30
ENDBRANCH  21  22
ENDBRANCH   1  20
TORSDOF 11
ENDMDL
MODEL 2
REMARK VINA RESULT:      -8.1      1.711      4.178
REMARK SMILES O=C(/C=C/c1ccc(O)c(O)c1)O[C@@H]1C[C@](O)(C(=O)O)C[C@@H](O)[C@H]1O
REMARK SMILES IDX 2 1 1 2 13 3 14 4 21 5 22 6 16 7 24 8 15 9 23 10 17 12 18 14
REMARK SMILES IDX 19 15 20 16 25 18 3 20 4 21 5 22 12 23 6 24 10 25 7 26 8 27
REMARK SMILES IDX 11 28 9 30
REMARK H PARENT 23 11 17 13 20 17 25 19 11 29 9 31
ROOT
ATOM      1  C   UNL     1      -6.954  -1.132 -27.062  1.00  0.00     0.331 C 
ATOM      2  O   UNL     1      -7.455  -1.334 -25.964  1.00  0.00    -0.247 OA
ENDROOT
BRANCH   1   3
ATOM      3  O   UNL     1      -5.697  -1.470 -27.433  1.00  0.00    -0.456 OA
BRANCH   3   4
ATOM      4  C   UNL     1      -4.884  -0.392 -27.945  1.00  0.00     0.211 C 
ATOM      5  C   UNL     1      -2.184   0.558 -28.754  1.00  0.00     0.082 C 
ATOM      6  C   UNL     1      -2.799   0.978 -27.420  1.00  0.00     0.150 C 
ATOM      7  C   UNL     1      -3.258   0.211 -29.794  1.00  0.00     0.167 C 
ATOM      8  C   UNL     1      -3.814  -0.050 -26.891  1.00  0.00     0.184 C 
ATOM      9  C   UNL     1      -4.232  -0.836 -29.258  1.00  0.00     0.095 C 
BRANCH   6  10
ATOM     10  O   UNL     1      -3.456   2.250 -27.537  1.00  0.00    -0.390 OA
ATOM     11  H   UNL     1      -4.407   2.093 -27.711  1.00  0.00     0.211 HD
ENDBRANCH   6  10
BRANCH   7  12
ATOM     12  O   UNL     1      -3.979   1.422 -30.113  1.00  0.00    -0.378 OA
ATOM     13  H   UNL     1      -3.820   2.059 -29.384  1.00  0.00     0.212 HD
ENDBRANCH   7  12
BRANCH   7  14
ATOM     14  C   UNL     1      -2.563  -0.289 -31.070  1.00  0.00     0.335 C 
ATOM     15  O   UNL     1      -3.056  -1.051 -31.885  1.00  0.00    -0.249 OA
BRANCH  14  16
ATOM     16  O   UNL     1      -1.304   0.205 -31.180  1.00  0.00    -0.479 OA
ATOM     17  H   UNL     1      -1.122   0.440 -32.119  1.00  0.00     0.296 HD
ENDBRANCH  14  16
ENDBRANCH   7  14
BRANCH   8  18
ATOM     18  O   UNL     1      -4.445   0.488 -25.721  1.00  0.00    -0.387 OA
ATOM     19  H   UNL     1      -4.015   1.353 -25.560  1.00  0.00     0.211 HD
ENDBRANCH   8  18
ENDBRANCH   3   4
ENDBRANCH   1   3
BRANCH   1  20
ATOM     20  C   UNL     1      -7.679  -0.428 -28.139  1.00  0.00     0.094 C 
ATOM     21  C   UNL     1      -8.102  -1.014 -29.271  1.00  0.00     0.016 C 
BRANCH  21  22
ATOM     22  C   UNL     1      -8.833  -0.298 -30.324  1.00  0.00    -0.021 A 
ATOM     23  C   UNL     1      -9.950  -0.859 -30.965  1.00  0.00     0.058 A 
ATOM     24  C   UNL     1      -8.433   1.006 -30.655  1.00  0.00     0.012 A 
ATOM     25  C   UNL     1     -10.626  -0.123 -31.934  1.00  0.00     0.157 A 
ATOM     26  C   UNL     1      -9.117   1.737 -31.631  1.00  0.00     0.051 A 
ATOM     27  C   UNL     1     -10.208   1.162 -32.264  1.00  0.00     0.157 A 
BRANCH  25  28
ATOM     28  O   UNL     1     -11.718  -0.623 -32.589  1.00  0.00    -0.504 OA
ATOM     29  H   UNL     1     -12.101   0.087 -33.131  1.00  0.00     0.293 HD
ENDBRANCH  25  28
BRANCH  27  30
ATOM     30  O   UNL     1     -10.879   1.875 -33.214  1.00  0.00    -0.504 OA
ATOM     31  H   UNL     1     -10.834   1.318 -34.017  1.00  0.00     0.293 HD
ENDBRANCH  27  30
ENDBRANCH  21  22
ENDBRANCH   1  20
TORSDOF 11
ENDMDL
MODEL 3
REMARK VINA RESULT:      -7.9      4.464      6.988
REMARK SMILES O=C(/C=C/c1ccc(O)c(O)c1)O[C@@H]1C[C@](O)(C(=O)O)C[C@@H](O)[C@H]1O
REMARK SMILES IDX 2 1 1 2 13 3 14 4 21 5 22 6 16 7 24 8 15 9 23 10 17 12 18 14
REMARK SMILES IDX 19 15 20 16 25 18 3 20 4 21 5 22 12 23 6 24 10 25 7 26 8 27
REMARK SMILES IDX 11 28 9 30
REMARK H PARENT 23 11 17 13 20 17 25 19 11 29 9 31
ROOT
ATOM      1  C   UNL     1      -7.118  -2.414 -29.327  1.00  0.00     0.331 C 
ATOM      2  O   UNL     1      -6.198  -2.081 -28.592  1.00  0.00    -0.247 OA
ENDROOT
BRANCH   1   3
ATOM      3  O   UNL     1      -7.237  -2.100 -30.638  1.00  0.00    -0.456 OA
BRANCH   3   4
ATOM      4  C   UNL     1      -7.555  -0.722 -30.925  1.00  0.00     0.211 C 
ATOM      5  C   UNL     1      -7.947   1.395 -32.977  1.00  0.00     0.082 C 
ATOM      6  C   UNL     1      -6.669   1.335 -32.142  1.00  0.00     0.150 C 
ATOM      7  C   UNL     1      -9.136   0.755 -32.248  1.00  0.00     0.167 C 
ATOM      8  C   UNL     1      -6.355  -0.088 -31.651  1.00  0.00     0.184 C 
ATOM      9  C   UNL     1      -8.811  -0.670 -31.802  1.00  0.00     0.095 C 
BRANCH   6  10
ATOM     10  O   UNL     1      -6.761   2.203 -31.000  1.00  0.00    -0.390 OA
ATOM     11  H   UNL     1      -6.573   1.676 -30.196  1.00  0.00     0.211 HD
ENDBRANCH   6  10
BRANCH   7  12
ATOM     12  O   UNL     1      -9.442   1.564 -31.091  1.00  0.00    -0.378 OA
ATOM     13  H   UNL     1     -10.407   1.495 -30.932  1.00  0.00     0.212 HD
ENDBRANCH   7  12
BRANCH   7  14
ATOM     14  C   UNL     1     -10.354   0.770 -33.185  1.00  0.00     0.335 C 
ATOM     15  O   UNL     1     -10.674  -0.136 -33.936  1.00  0.00    -0.249 OA
BRANCH  14  16
ATOM     16  O   UNL     1     -11.036   1.940 -33.098  1.00  0.00    -0.479 OA
ATOM     17  H   UNL     1     -11.059   2.376 -33.981  1.00  0.00     0.296 HD
ENDBRANCH  14  16
ENDBRANCH   7  14
BRANCH   8  18
ATOM     18  O   UNL     1      -5.231  -0.029 -30.762  1.00  0.00    -0.387 OA
ATOM     19  H   UNL     1      -5.120  -0.937 -30.410  1.00  0.00     0.211 HD
ENDBRANCH   8  18
ENDBRANCH   3   4
ENDBRANCH   1   3
BRANCH   1  20
ATOM     20  C   UNL     1      -8.272  -3.195 -28.836  1.00  0.00     0.094 C 
ATOM     21  C   UNL     1      -9.148  -2.750 -27.921  1.00  0.00     0.016 C 
BRANCH  21  22
ATOM     22  C   UNL     1     -10.296  -3.538 -27.456  1.00  0.00    -0.021 A 
ATOM     23  C   UNL     1     -10.476  -4.880 -27.828  1.00  0.00     0.058 A 
ATOM     24  C   UNL     1     -11.206  -2.943 -26.567  1.00  0.00     0.012 A 
ATOM     25  C   UNL     1     -11.565  -5.590 -27.331  1.00  0.00     0.157 A 
ATOM     26  C   UNL     1     -12.298  -3.663 -26.075  1.00  0.00     0.051 A 
ATOM     27  C   UNL     1     -12.468  -4.982 -26.464  1.00  0.00     0.157 A 
BRANCH  25  28
ATOM     28  O   UNL     1     -11.787  -6.898 -27.662  1.00  0.00    -0.504 OA
ATOM     29  H   UNL     1     -12.717  -6.993 -27.928  1.00  0.00     0.293 HD
ENDBRANCH  25  28
BRANCH  27  30
ATOM     30  O   UNL     1     -13.532  -5.688 -25.981  1.00  0.00    -0.504 OA
ATOM     31  H   UNL     1     -13.133  -6.474 -25.558  1.00  0.00     0.293 HD
ENDBRANCH  27  30
ENDBRANCH  21  22
ENDBRANCH   1  20
TORSDOF 11
ENDMDL
MODEL 4
REMARK VINA RESULT:      -7.8      5.545      7.276
REMARK SMILES O=C(/C=C/c1ccc(O)c(O)c1)O[C@@H]1C[C@](O)(C(=O)O)C[C@@H](O)[C@H]1O
REMARK SMILES IDX 2 1 1 2 13 3 14 4 21 5 22 6 16 7 24 8 15 9 23 10 17 12 18 14
REMARK SMILES IDX 19 15 20 16 25 18 3 20 4 21 5 22 12 23 6 24 10 25 7 26 8 27
REMARK SMILES IDX 11 28 9 30
REMARK H PARENT 23 11 17 13 20 17 25 19 11 29 9 31
ROOT
ATOM      1  C   UNL     1      -9.774  -4.968 -29.756  1.00  0.00     0.331 C 
ATOM      2  O   UNL     1     -10.309  -5.883 -30.367  1.00  0.00    -0.247 OA
ENDROOT
BRANCH   1   3
ATOM      3  O   UNL     1      -9.549  -4.933 -28.422  1.00  0.00    -0.456 OA
BRANCH   3   4
ATOM      4  C   UNL     1     -10.717  -4.740 -27.596  1.00  0.00     0.211 C 
ATOM      5  C   UNL     1     -11.887  -4.716 -24.861  1.00  0.00     0.082 C 
ATOM      6  C   UNL     1     -12.127  -5.889 -25.810  1.00  0.00     0.150 C 
ATOM      7  C   UNL     1     -11.601  -3.415 -25.623  1.00  0.00     0.167 C 
ATOM      8  C   UNL     1     -10.997  -6.052 -26.840  1.00  0.00     0.184 C 
ATOM      9  C   UNL     1     -10.452  -3.593 -26.614  1.00  0.00     0.095 C 
BRANCH   6  10
ATOM     10  O   UNL     1     -13.370  -5.732 -26.515  1.00  0.00    -0.390 OA
ATOM     11  H   UNL     1     -13.780  -6.616 -26.620  1.00  0.00     0.211 HD
ENDBRANCH   6  10
BRANCH   7  12
ATOM     12  O   UNL     1     -12.800  -3.041 -26.337  1.00  0.00    -0.378 OA
ATOM     13  H   UNL     1     -13.457  -2.744 -25.671  1.00  0.00     0.212 HD
ENDBRANCH   7  12
BRANCH   7  14
ATOM     14  C   UNL     1     -11.279  -2.310 -24.605  1.00  0.00     0.335 C 
ATOM     15  O   UNL     1     -10.945  -1.171 -24.886  1.00  0.00    -0.249 OA
BRANCH  14  16
ATOM     16  O   UNL     1     -11.389  -2.759 -23.329  1.00  0.00    -0.479 OA
ATOM     17  H   UNL     1     -10.874  -2.173 -22.727  1.00  0.00     0.296 HD
ENDBRANCH  14  16
ENDBRANCH   7  14
BRANCH   8  18
ATOM     18  O   UNL     1     -11.371  -7.074 -27.775  1.00  0.00    -0.387 OA
ATOM     19  H   UNL     1     -10.691  -7.775 -27.691  1.00  0.00     0.211 HD
ENDBRANCH   8  18
ENDBRANCH   3   4
ENDBRANCH   1   3
BRANCH   1  20
ATOM     20  C   UNL     1      -9.334  -3.727 -30.426  1.00  0.00     0.094 C 
ATOM     21  C   UNL     1     -10.151  -2.709 -30.738  1.00  0.00     0.016 C 
BRANCH  21  22
ATOM     22  C   UNL     1      -9.691  -1.478 -31.394  1.00  0.00    -0.021 A 
ATOM     23  C   UNL     1     -10.589  -0.493 -31.837  1.00  0.00     0.058 A 
ATOM     24  C   UNL     1      -8.311  -1.260 -31.526  1.00  0.00     0.012 A 
ATOM     25  C   UNL     1     -10.097   0.670 -32.422  1.00  0.00     0.157 A 
ATOM     26  C   UNL     1      -7.825  -0.090 -32.117  1.00  0.00     0.051 A 
ATOM     27  C   UNL     1      -8.726   0.865 -32.562  1.00  0.00     0.157 A 
BRANCH  25  28
ATOM     28  O   UNL     1     -10.927   1.660 -32.872  1.00  0.00    -0.504 OA
ATOM     29  H   UNL     1     -10.585   2.513 -32.555  1.00  0.00     0.293 HD
ENDBRANCH  25  28
BRANCH  27  30
ATOM     30  O   UNL     1      -8.254   2.009 -33.136  1.00  0.00    -0.504 OA
ATOM     31  H   UNL     1      -8.850   2.712 -32.809  1.00  0.00     0.293 HD
ENDBRANCH  27  30
ENDBRANCH  21  22
ENDBRANCH   1  20
TORSDOF 11
ENDMDL
MODEL 5
REMARK VINA RESULT:      -7.8      4.630      7.790
REMARK SMILES O=C(/C=C/c1ccc(O)c(O)c1)O[C@@H]1C[C@](O)(C(=O)O)C[C@@H](O)[C@H]1O
REMARK SMILES IDX 2 1 1 2 13 3 14 4 21 5 22 6 16 7 24 8 15 9 23 10 17 12 18 14
REMARK SMILES IDX 19 15 20 16 25 18 3 20 4 21 5 22 12 23 6 24 10 25 7 26 8 27
REMARK SMILES IDX 11 28 9 30
REMARK H PARENT 23 11 17 13 20 17 25 19 11 29 9 31
ROOT
ATOM      1  C   UNL     1      -7.933  -3.342 -29.716  1.00  0.00     0.331 C 
ATOM      2  O   UNL     1      -7.828  -4.289 -30.484  1.00  0.00    -0.247 OA
ENDROOT
BRANCH   1   3
ATOM      3  O   UNL     1      -9.095  -2.796 -29.287  1.00  0.00    -0.456 OA
BRANCH   3   4
ATOM      4  C   UNL     1      -9.501  -3.160 -27.950  1.00  0.00     0.211 C 
ATOM      5  C   UNL     1     -11.674  -3.269 -25.923  1.00  0.00     0.082 C 
ATOM      6  C   UNL     1     -10.580  -2.205 -25.848  1.00  0.00     0.150 C 
ATOM      7  C   UNL     1     -11.196  -4.529 -26.654  1.00  0.00     0.167 C 
ATOM      8  C   UNL     1      -9.975  -1.887 -27.225  1.00  0.00     0.184 C 
ATOM      9  C   UNL     1     -10.631  -4.192 -28.033  1.00  0.00     0.095 C 
BRANCH   6  10
ATOM     10  O   UNL     1      -9.522  -2.619 -24.968  1.00  0.00    -0.390 OA
ATOM     11  H   UNL     1      -8.742  -2.855 -25.511  1.00  0.00     0.211 HD
ENDBRANCH   6  10
BRANCH   7  12
ATOM     12  O   UNL     1     -10.167  -5.150 -25.851  1.00  0.00    -0.378 OA
ATOM     13  H   UNL     1     -10.590  -5.874 -25.341  1.00  0.00     0.212 HD
ENDBRANCH   7  12
BRANCH   7  14
ATOM     14  C   UNL     1     -12.375  -5.508 -26.771  1.00  0.00     0.335 C 
ATOM     15  O   UNL     1     -13.445  -5.390 -26.198  1.00  0.00    -0.249 OA
BRANCH  14  16
ATOM     16  O   UNL     1     -12.078  -6.553 -27.584  1.00  0.00    -0.479 OA
ATOM     17  H   UNL     1     -11.178  -6.432 -27.963  1.00  0.00     0.296 HD
ENDBRANCH  14  16
ENDBRANCH   7  14
BRANCH   8  18
ATOM     18  O   UNL     1      -8.865  -0.996 -27.044  1.00  0.00    -0.387 OA
ATOM     19  H   UNL     1      -8.101  -1.428 -27.479  1.00  0.00     0.211 HD
ENDBRANCH   8  18
ENDBRANCH   3   4
ENDBRANCH   1   3
BRANCH   1  20
ATOM     20  C   UNL     1      -6.755  -2.630 -29.181  1.00  0.00     0.094 C 
ATOM     21  C   UNL     1      -5.882  -1.944 -29.936  1.00  0.00     0.016 C 
BRANCH  21  22
ATOM     22  C   UNL     1      -4.723  -1.232 -29.382  1.00  0.00    -0.021 A 
ATOM     23  C   UNL     1      -3.644  -0.831 -30.188  1.00  0.00     0.058 A 
ATOM     24  C   UNL     1      -4.726  -0.895 -28.020  1.00  0.00     0.012 A 
ATOM     25  C   UNL     1      -2.586  -0.130 -29.618  1.00  0.00     0.157 A 
ATOM     26  C   UNL     1      -3.658  -0.192 -27.455  1.00  0.00     0.051 A 
ATOM     27  C   UNL     1      -2.595   0.182 -28.262  1.00  0.00     0.157 A 
BRANCH  25  28
ATOM     28  O   UNL     1      -1.511   0.283 -30.356  1.00  0.00    -0.504 OA
ATOM     29  H   UNL     1      -1.172   1.108 -29.969  1.00  0.00     0.293 HD
ENDBRANCH  25  28
BRANCH  27  30
ATOM     30  O   UNL     1      -1.553   0.872 -27.713  1.00  0.00    -0.504 OA
ATOM     31  H   UNL     1      -0.759   0.510 -28.155  1.00  0.00     0.293 HD
ENDBRANCH  27  30
ENDBRANCH  21  22
ENDBRANCH   1  20
TORSDOF 11
ENDMDL
MODEL 6
REMARK VINA RESULT:      -7.7      3.882      4.622
REMARK SMILES O=C(/C=C/c1ccc(O)c(O)c1)O[C@@H]1C[C@](O)(C(=O)O)C[C@@H](O)[C@H]1O
REMARK SMILES IDX 2 1 1 2 13 3 14 4 21 5 22 6 16 7 24 8 15 9 23 10 17 12 18 14
REMARK SMILES IDX 19 15 20 16 25 18 3 20 4 21 5 22 12 23 6 24 10 25 7 26 8 27
REMARK SMILES IDX 11 28 9 30
REMARK H PARENT 23 11 17 13 20 17 25 19 11 29 9 31
ROOT
ATOM      1  C   UNL     1      -7.758  -0.673 -30.911  1.00  0.00     0.331 C 
ATOM      2  O   UNL     1      -7.815  -0.603 -32.132  1.00  0.00    -0.247 OA
ENDROOT
BRANCH   1   3
ATOM      3  O   UNL     1      -6.967   0.080 -30.112  1.00  0.00    -0.456 OA
BRANCH   3   4
ATOM      4  C   UNL     1      -5.980  -0.644 -29.348  1.00  0.00     0.211 C 
ATOM      5  C   UNL     1      -3.787  -0.550 -27.340  1.00  0.00     0.082 C 
ATOM      6  C   UNL     1      -3.484  -0.701 -28.830  1.00  0.00     0.150 C 
ATOM      7  C   UNL     1      -5.179  -1.087 -26.983  1.00  0.00     0.167 C 
ATOM      8  C   UNL     1      -4.587  -0.100 -29.718  1.00  0.00     0.184 C 
ATOM      9  C   UNL     1      -6.260  -0.450 -27.854  1.00  0.00     0.095 C 
BRANCH   6  10
ATOM     10  O   UNL     1      -3.317  -2.084 -29.181  1.00  0.00    -0.390 OA
ATOM     11  H   UNL     1      -3.553  -2.631 -28.403  1.00  0.00     0.211 HD
ENDBRANCH   6  10
BRANCH   7  12
ATOM     12  O   UNL     1      -5.174  -2.517 -27.190  1.00  0.00    -0.378 OA
ATOM     13  H   UNL     1      -5.703  -2.698 -27.996  1.00  0.00     0.212 HD
ENDBRANCH   7  12
BRANCH   7  14
ATOM     14  C   UNL     1      -5.444  -0.814 -25.494  1.00  0.00     0.335 C 
ATOM     15  O   UNL     1      -6.034  -1.566 -24.736  1.00  0.00    -0.249 OA
BRANCH  14  16
ATOM     16  O   UNL     1      -4.956   0.393 -25.113  1.00  0.00    -0.479 OA
ATOM     17  H   UNL     1      -5.660   0.903 -24.651  1.00  0.00     0.296 HD
ENDBRANCH  14  16
ENDBRANCH   7  14
BRANCH   8  18
ATOM     18  O   UNL     1      -4.297  -0.414 -31.087  1.00  0.00    -0.387 OA
ATOM     19  H   UNL     1      -3.543   0.160 -31.338  1.00  0.00     0.211 HD
ENDBRANCH   8  18
ENDBRANCH   3   4
ENDBRANCH   1   3
BRANCH   1  20
ATOM     20  C   UNL     1      -8.547  -1.658 -30.143  1.00  0.00     0.094 C 
ATOM     21  C   UNL     1      -8.682  -2.949 -30.487  1.00  0.00     0.016 C 
BRANCH  21  22
ATOM     22  C   UNL     1      -9.461  -3.914 -29.703  1.00  0.00    -0.021 A 
ATOM     23  C   UNL     1      -9.427  -3.929 -28.299  1.00  0.00     0.058 A 
ATOM     24  C   UNL     1     -10.307  -4.807 -30.380  1.00  0.00     0.012 A 
ATOM     25  C   UNL     1     -10.213  -4.845 -27.604  1.00  0.00     0.157 A 
ATOM     26  C   UNL     1     -11.090  -5.725 -29.673  1.00  0.00     0.051 A 
ATOM     27  C   UNL     1     -11.033  -5.735 -28.289  1.00  0.00     0.157 A 
BRANCH  25  28
ATOM     28  O   UNL     1     -10.216  -4.903 -26.237  1.00  0.00    -0.504 OA
ATOM     29  H   UNL     1     -10.697  -4.128 -25.899  1.00  0.00     0.293 HD
ENDBRANCH  25  28
BRANCH  27  30
ATOM     30  O   UNL     1     -11.800  -6.628 -27.598  1.00  0.00    -0.504 OA
ATOM     31  H   UNL     1     -12.610  -6.131 -27.371  1.00  0.00     0.293 HD
ENDBRANCH  27  30
ENDBRANCH  21  22
ENDBRANCH   1  20
TORSDOF 11
ENDMDL
MODEL 7
REMARK VINA RESULT:      -7.7      3.763      6.786
REMARK SMILES O=C(/C=C/c1ccc(O)c(O)c1)O[C@@H]1C[C@](O)(C(=O)O)C[C@@H](O)[C@H]1O
REMARK SMILES IDX 2 1 1 2 13 3 14 4 21 5 22 6 16 7 24 8 15 9 23 10 17 12 18 14
REMARK SMILES IDX 19 15 20 16 25 18 3 20 4 21 5 22 12 23 6 24 10 25 7 26 8 27
REMARK SMILES IDX 11 28 9 30
REMARK H PARENT 23 11 17 13 20 17 25 19 11 29 9 31
ROOT
ATOM      1  C   UNL     1      -8.343  -0.668 -31.230  1.00  0.00     0.331 C 
ATOM      2  O   UNL     1      -8.308  -0.731 -32.451  1.00  0.00    -0.247 OA
ENDROOT
BRANCH   1   3
ATOM      3  O   UNL     1      -9.422  -0.929 -30.455  1.00  0.00    -0.456 OA
BRANCH   3   4
ATOM      4  C   UNL     1      -9.194  -1.827 -29.348  1.00  0.00     0.211 C 
ATOM      5  C   UNL     1     -10.339  -3.769 -27.408  1.00  0.00     0.082 C 
ATOM      6  C   UNL     1      -9.990  -2.344 -26.982  1.00  0.00     0.150 C 
ATOM      7  C   UNL     1      -9.494  -4.232 -28.602  1.00  0.00     0.167 C 
ATOM      8  C   UNL     1     -10.043  -1.351 -28.155  1.00  0.00     0.184 C 
ATOM      9  C   UNL     1      -9.591  -3.247 -29.766  1.00  0.00     0.095 C 
BRANCH   6  10
ATOM     10  O   UNL     1      -8.679  -2.291 -26.397  1.00  0.00    -0.390 OA
ATOM     11  H   UNL     1      -8.446  -3.188 -26.079  1.00  0.00     0.211 HD
ENDBRANCH   6  10
BRANCH   7  12
ATOM     12  O   UNL     1      -8.120  -4.330 -28.167  1.00  0.00    -0.378 OA
ATOM     13  H   UNL     1      -7.773  -3.416 -28.085  1.00  0.00     0.212 HD
ENDBRANCH   7  12
BRANCH   7  14
ATOM     14  C   UNL     1      -9.968  -5.631 -29.027  1.00  0.00     0.335 C 
ATOM     15  O   UNL     1     -10.469  -5.905 -30.105  1.00  0.00    -0.249 OA
BRANCH  14  16
ATOM     16  O   UNL     1      -9.783  -6.543 -28.040  1.00  0.00    -0.479 OA
ATOM     17  H   UNL     1      -9.618  -7.429 -28.435  1.00  0.00     0.296 HD
ENDBRANCH  14  16
ENDBRANCH   7  14
BRANCH   8  18
ATOM     18  O   UNL     1      -9.563  -0.078 -27.701  1.00  0.00    -0.387 OA
ATOM     19  H   UNL     1     -10.337   0.523 -27.721  1.00  0.00     0.211 HD
ENDBRANCH   8  18
ENDBRANCH   3   4
ENDBRANCH   1   3
BRANCH   1  20
ATOM     20  C   UNL     1      -7.176  -0.240 -30.431  1.00  0.00     0.094 C 
ATOM     21  C   UNL     1      -5.900  -0.476 -30.775  1.00  0.00     0.016 C 
BRANCH  21  22
ATOM     22  C   UNL     1      -4.754  -0.032 -29.973  1.00  0.00    -0.021 A 
ATOM     23  C   UNL     1      -4.715   1.239 -29.375  1.00  0.00     0.058 A 
ATOM     24  C   UNL     1      -3.696  -0.928 -29.754  1.00  0.00     0.012 A 
ATOM     25  C   UNL     1      -3.618   1.596 -28.596  1.00  0.00     0.157 A 
ATOM     26  C   UNL     1      -2.597  -0.559 -28.972  1.00  0.00     0.051 A 
ATOM     27  C   UNL     1      -2.569   0.703 -28.402  1.00  0.00     0.157 A 
BRANCH  25  28
ATOM     28  O   UNL     1      -3.528   2.820 -27.992  1.00  0.00    -0.504 OA
ATOM     29  H   UNL     1      -4.375   3.282 -28.111  1.00  0.00     0.293 HD
ENDBRANCH  25  28
BRANCH  27  30
ATOM     30  O   UNL     1      -1.498   1.063 -27.635  1.00  0.00    -0.504 OA
ATOM     31  H   UNL     1      -1.474   0.397 -26.920  1.00  0.00     0.293 HD
ENDBRANCH  27  30
ENDBRANCH  21  22
ENDBRANCH   1  20
TORSDOF 11
ENDMDL
MODEL 8
REMARK VINA RESULT:      -7.7      3.863      5.149
REMARK SMILES O=C(/C=C/c1ccc(O)c(O)c1)O[C@@H]1C[C@](O)(C(=O)O)C[C@@H](O)[C@H]1O
REMARK SMILES IDX 2 1 1 2 13 3 14 4 21 5 22 6 16 7 24 8 15 9 23 10 17 12 18 14
REMARK SMILES IDX 19 15 20 16 25 18 3 20 4 21 5 22 12 23 6 24 10 25 7 26 8 27
REMARK SMILES IDX 11 28 9 30
REMARK H PARENT 23 11 17 13 20 17 25 19 11 29 9 31
ROOT
ATOM      1  C   UNL     1      -7.154  -0.975 -31.140  1.00  0.00     0.331 C 
ATOM      2  O   UNL     1      -7.450  -0.232 -32.066  1.00  0.00    -0.247 OA
ENDROOT
BRANCH   1   3
ATOM      3  O   UNL     1      -5.909  -1.165 -30.646  1.00  0.00    -0.456 OA
BRANCH   3   4
ATOM      4  C   UNL     1      -5.599  -0.441 -29.436  1.00  0.00     0.211 C 
ATOM      5  C   UNL     1      -3.515   0.778 -27.698  1.00  0.00     0.082 C 
ATOM      6  C   UNL     1      -4.159  -0.560 -27.336  1.00  0.00     0.150 C 
ATOM      7  C   UNL     1      -4.441   1.640 -28.566  1.00  0.00     0.167 C 
ATOM      8  C   UNL     1      -4.673  -1.317 -28.571  1.00  0.00     0.184 C 
ATOM      9  C   UNL     1      -4.911   0.878 -29.804  1.00  0.00     0.095 C 
BRANCH   6  10
ATOM     10  O   UNL     1      -5.254  -0.371 -26.425  1.00  0.00    -0.390 OA
ATOM     11  H   UNL     1      -6.085  -0.607 -26.888  1.00  0.00     0.211 HD
ENDBRANCH   6  10
BRANCH   7  12
ATOM     12  O   UNL     1      -5.586   2.014 -27.767  1.00  0.00    -0.378 OA
ATOM     13  H   UNL     1      -5.341   2.820 -27.265  1.00  0.00     0.212 HD
ENDBRANCH   7  12
BRANCH   7  14
ATOM     14  C   UNL     1      -3.690   2.921 -28.964  1.00  0.00     0.335 C 
ATOM     15  O   UNL     1      -2.959   3.564 -28.230  1.00  0.00    -0.249 OA
BRANCH  14  16
ATOM     16  O   UNL     1      -3.954   3.276 -30.247  1.00  0.00    -0.479 OA
ATOM     17  H   UNL     1      -4.905   3.117 -30.445  1.00  0.00     0.296 HD
ENDBRANCH  14  16
ENDBRANCH   7  14
BRANCH   8  18
ATOM     18  O   UNL     1      -5.387  -2.482 -28.131  1.00  0.00    -0.387 OA
ATOM     19  H   UNL     1      -6.189  -2.148 -27.677  1.00  0.00     0.211 HD
ENDBRANCH   8  18
ENDBRANCH   3   4
ENDBRANCH   1   3
BRANCH   1  20
ATOM     20  C   UNL     1      -8.158  -1.816 -30.456  1.00  0.00     0.094 C 
ATOM     21  C   UNL     1      -8.046  -3.144 -30.299  1.00  0.00     0.016 C 
BRANCH  21  22
ATOM     22  C   UNL     1      -9.050  -3.961 -29.604  1.00  0.00    -0.021 A 
ATOM     23  C   UNL     1      -9.165  -3.963 -28.204  1.00  0.00     0.058 A 
ATOM     24  C   UNL     1      -9.954  -4.713 -30.370  1.00  0.00     0.012 A 
ATOM     25  C   UNL     1     -10.157  -4.729 -27.599  1.00  0.00     0.157 A 
ATOM     26  C   UNL     1     -10.946  -5.482 -29.753  1.00  0.00     0.051 A 
ATOM     27  C   UNL     1     -11.035  -5.484 -28.370  1.00  0.00     0.157 A 
BRANCH  25  28
ATOM     28  O   UNL     1     -10.312  -4.769 -26.241  1.00  0.00    -0.504 OA
ATOM     29  H   UNL     1     -10.748  -5.605 -26.006  1.00  0.00     0.293 HD
ENDBRANCH  25  28
BRANCH  27  30
ATOM     30  O   UNL     1     -12.005  -6.231 -27.767  1.00  0.00    -0.504 OA
ATOM     31  H   UNL     1     -12.360  -6.796 -28.482  1.00  0.00     0.293 HD
ENDBRANCH  27  30
ENDBRANCH  21  22
ENDBRANCH   1  20
TORSDOF 11
ENDMDL
MODEL 9
REMARK VINA RESULT:      -7.7      2.736      7.141
REMARK SMILES O=C(/C=C/c1ccc(O)c(O)c1)O[C@@H]1C[C@](O)(C(=O)O)C[C@@H](O)[C@H]1O
REMARK SMILES IDX 2 1 1 2 13 3 14 4 21 5 22 6 16 7 24 8 15 9 23 10 17 12 18 14
REMARK SMILES IDX 19 15 20 16 25 18 3 20 4 21 5 22 12 23 6 24 10 25 7 26 8 27
REMARK SMILES IDX 11 28 9 30
REMARK H PARENT 23 11 17 13 20 17 25 19 11 29 9 31
ROOT
ATOM      1  C   UNL     1      -8.096  -1.294 -26.315  1.00  0.00     0.331 C 
ATOM      2  O   UNL     1      -8.017  -1.524 -25.117  1.00  0.00    -0.247 OA
ENDROOT
BRANCH   1   3
ATOM      3  O   UNL     1      -9.200  -1.459 -27.081  1.00  0.00    -0.456 OA
BRANCH   3   4
ATOM      4  C   UNL     1      -8.959  -1.676 -28.488  1.00  0.00     0.211 C 
ATOM      5  C   UNL     1     -10.086  -2.326 -31.163  1.00  0.00     0.082 C 
ATOM      6  C   UNL     1      -9.328  -3.376 -30.352  1.00  0.00     0.150 C 
ATOM      7  C   UNL     1      -9.649  -0.900 -30.801  1.00  0.00     0.167 C 
ATOM      8  C   UNL     1      -9.396  -3.110 -28.838  1.00  0.00     0.184 C 
ATOM      9  C   UNL     1      -9.759  -0.650 -29.298  1.00  0.00     0.095 C 
BRANCH   6  10
ATOM     10  O   UNL     1      -7.947  -3.428 -30.745  1.00  0.00    -0.390 OA
ATOM     11  H   UNL     1      -7.687  -2.545 -31.080  1.00  0.00     0.211 HD
ENDBRANCH   6  10
BRANCH   7  12
ATOM     12  O   UNL     1      -8.276  -0.732 -31.218  1.00  0.00    -0.378 OA
ATOM     13  H   UNL     1      -7.712  -1.198 -30.564  1.00  0.00     0.212 HD
ENDBRANCH   7  12
BRANCH   7  14
ATOM     14  C   UNL     1     -10.519   0.095 -31.586  1.00  0.00     0.335 C 
ATOM     15  O   UNL     1     -10.415   1.309 -31.537  1.00  0.00    -0.249 OA
BRANCH  14  16
ATOM     16  O   UNL     1     -11.451  -0.542 -32.339  1.00  0.00    -0.479 OA
ATOM     17  H   UNL     1     -11.022  -1.261 -32.857  1.00  0.00     0.296 HD
ENDBRANCH  14  16
ENDBRANCH   7  14
BRANCH   8  18
ATOM     18  O   UNL     1      -8.543  -4.050 -28.169  1.00  0.00    -0.387 OA
ATOM     19  H   UNL     1      -8.420  -3.700 -27.262  1.00  0.00     0.211 HD
ENDBRANCH   8  18
ENDBRANCH   3   4
ENDBRANCH   1   3
BRANCH   1  20
ATOM     20  C   UNL     1      -6.937  -0.831 -27.105  1.00  0.00     0.094 C 
ATOM     21  C   UNL     1      -5.724  -1.404 -27.070  1.00  0.00     0.016 C 
BRANCH  21  22
ATOM     22  C   UNL     1      -4.587  -0.935 -27.873  1.00  0.00    -0.021 A 
ATOM     23  C   UNL     1      -3.601  -0.089 -27.339  1.00  0.00     0.058 A 
ATOM     24  C   UNL     1      -4.458  -1.396 -29.193  1.00  0.00     0.012 A 
ATOM     25  C   UNL     1      -2.527   0.298 -28.135  1.00  0.00     0.157 A 
ATOM     26  C   UNL     1      -3.377  -0.999 -29.985  1.00  0.00     0.051 A 
ATOM     27  C   UNL     1      -2.421  -0.152 -29.447  1.00  0.00     0.157 A 
BRANCH  25  28
ATOM     28  O   UNL     1      -1.540   1.121 -27.666  1.00  0.00    -0.504 OA
ATOM     29  H   UNL     1      -0.860   0.572 -27.240  1.00  0.00     0.293 HD
ENDBRANCH  25  28
BRANCH  27  30
ATOM     30  O   UNL     1      -1.363   0.233 -30.218  1.00  0.00    -0.504 OA
ATOM     31  H   UNL     1      -0.897  -0.601 -30.430  1.00  0.00     0.293 HD
ENDBRANCH  27  30
ENDBRANCH  21  22
ENDBRANCH   1  20
TORSDOF 11
ENDMDL
MODEL 10
REMARK VINA RESULT:      -7.6      4.848      8.232
REMARK SMILES O=C(/C=C/c1ccc(O)c(O)c1)O[C@@H]1C[C@](O)(C(=O)O)C[C@@H](O)[C@H]1O
REMARK SMILES IDX 2 1 1 2 13 3 14 4 21 5 22 6 16 7 24 8 15 9 23 10 17 12 18 14
REMARK SMILES IDX 19 15 20 16 25 18 3 20 4 21 5 22 12 23 6 24 10 25 7 26 8 27
REMARK SMILES IDX 11 28 9 30
REMARK H PARENT 23 11 17 13 20 17 25 19 11 29 9 31
ROOT
ATOM      1  C   UNL     1      -7.952  -1.293 -25.638  1.00  0.00     0.331 C 
ATOM      2  O   UNL     1      -7.725  -1.527 -24.459  1.00  0.00    -0.247 OA
ENDROOT
BRANCH   1   3
ATOM      3  O   UNL     1      -9.157  -1.394 -26.246  1.00  0.00    -0.456 OA
BRANCH   3   4
ATOM      4  C   UNL     1      -9.961  -2.528 -25.857  1.00  0.00     0.211 C 
ATOM      5  C   UNL     1     -12.445  -4.111 -26.271  1.00  0.00     0.082 C 
ATOM      6  C   UNL     1     -12.307  -3.158 -25.084  1.00  0.00     0.150 C 
ATOM      7  C   UNL     1     -11.081  -4.617 -26.759  1.00  0.00     0.167 C 
ATOM      8  C   UNL     1     -11.325  -2.009 -25.366  1.00  0.00     0.184 C 
ATOM      9  C   UNL     1     -10.136  -3.456 -27.064  1.00  0.00     0.095 C 
BRANCH   6  10
ATOM     10  O   UNL     1     -11.866  -3.861 -23.912  1.00  0.00    -0.390 OA
ATOM     11  H   UNL     1     -11.020  -3.466 -23.614  1.00  0.00     0.211 HD
ENDBRANCH   6  10
BRANCH   7  12
ATOM     12  O   UNL     1     -10.511  -5.442 -25.718  1.00  0.00    -0.378 OA
ATOM     13  H   UNL     1     -10.308  -4.856 -24.958  1.00  0.00     0.212 HD
ENDBRANCH   7  12
BRANCH   7  14
ATOM     14  C   UNL     1     -11.297  -5.489 -28.005  1.00  0.00     0.335 C 
ATOM     15  O   UNL     1     -10.854  -5.249 -29.116  1.00  0.00    -0.249 OA
BRANCH  14  16
ATOM     16  O   UNL     1     -12.071  -6.569 -27.731  1.00  0.00    -0.479 OA
ATOM     17  H   UNL     1     -12.074  -6.736 -26.761  1.00  0.00     0.296 HD
ENDBRANCH  14  16
ENDBRANCH   7  14
BRANCH   8  18
ATOM     18  O   UNL     1     -11.145  -1.253 -24.159  1.00  0.00    -0.387 OA
ATOM     19  H   UNL     1     -12.015  -0.846 -23.967  1.00  0.00     0.211 HD
ENDBRANCH   8  18
ENDBRANCH   3   4
ENDBRANCH   1   3
BRANCH   1  20
ATOM     20  C   UNL     1      -6.886  -0.900 -26.581  1.00  0.00     0.094 C 
ATOM     21  C   UNL     1      -5.585  -1.186 -26.410  1.00  0.00     0.016 C 
BRANCH  21  22
ATOM     22  C   UNL     1      -4.541  -0.795 -27.366  1.00  0.00    -0.021 A 
ATOM     23  C   UNL     1      -3.517   0.102 -27.022  1.00  0.00     0.058 A 
ATOM     24  C   UNL     1      -4.540  -1.384 -28.641  1.00  0.00     0.012 A 
ATOM     25  C   UNL     1      -2.534   0.412 -27.957  1.00  0.00     0.157 A 
ATOM     26  C   UNL     1      -3.550  -1.065 -29.574  1.00  0.00     0.051 A 
ATOM     27  C   UNL     1      -2.555  -0.166 -29.222  1.00  0.00     0.157 A 
BRANCH  25  28
ATOM     28  O   UNL     1      -1.515   1.280 -27.674  1.00  0.00    -0.504 OA
ATOM     29  H   UNL     1      -1.725   2.139 -28.077  1.00  0.00     0.293 HD
ENDBRANCH  25  28
BRANCH  27  30
ATOM     30  O   UNL     1      -1.585   0.143 -30.131  1.00  0.00    -0.504 OA
ATOM     31  H   UNL     1      -0.946   0.690 -29.632  1.00  0.00     0.293 HD
ENDBRANCH  27  30
ENDBRANCH  21  22
ENDBRANCH   1  20
TORSDOF 11
ENDMDL
