MODEL 1
REMARK VINA RESULT:      -8.9      0.000      0.000
REMARK SMILES O=C(/C=C/c1ccc(O)c(O)c1)O[C@@H]1[C@H](O)C[C@@](O)(C(=O)O)C[C@H]1OC(=O)/C=C/c1ccc(O)c(O)c1
REMARK SMILES IDX 17 1 15 2 14 3 24 4 23 5 18 6 16 7 19 9 20 11 21 12 22 13
REMARK SMILES IDX 13 15 2 16 1 17 3 18 4 19 5 20 12 21 6 22 10 23 7 24 8 25
REMARK SMILES IDX 11 26 9 28 25 30 26 31 27 32 28 33 29 34 30 35 37 36 31 37
REMARK SMILES IDX 35 38 32 39 33 40 36 41 34 43
REMARK H PARENT 16 8 19 10 22 14 11 27 9 29 36 42 34 44
ROOT
ATOM      1  C   UNL     1     -10.365  -2.580 -22.960  1.00  0.00     0.083 C 
ATOM      2  C   UNL     1     -10.425  -1.491 -24.028  1.00  0.00     0.162 C 
ATOM      3  C   UNL     1      -9.106  -1.408 -24.816  1.00  0.00     0.246 C 
ATOM      4  C   UNL     1      -7.909  -1.173 -23.873  1.00  0.00     0.223 C 
ATOM      5  C   UNL     1      -7.855  -2.242 -22.777  1.00  0.00     0.097 C 
ATOM      6  C   UNL     1      -9.174  -2.365 -22.015  1.00  0.00     0.168 C 
ENDROOT
BRANCH   2   7
ATOM      7  O   UNL     1     -10.677  -0.245 -23.358  1.00  0.00    -0.389 OA
ATOM      8  H   UNL     1      -9.921  -0.099 -22.754  1.00  0.00     0.211 HD
ENDBRANCH   2   7
BRANCH   6   9
ATOM      9  O   UNL     1      -9.365  -1.175 -21.220  1.00  0.00    -0.378 OA
ATOM     10  H   UNL     1     -10.252  -0.810 -21.454  1.00  0.00     0.212 HD
ENDBRANCH   6   9
BRANCH   6  11
ATOM     11  C   UNL     1      -9.092  -3.545 -21.036  1.00  0.00     0.335 C 
ATOM     12  O   UNL     1      -9.315  -3.481 -19.837  1.00  0.00    -0.249 OA
BRANCH  11  13
ATOM     13  O   UNL     1      -8.744  -4.694 -21.671  1.00  0.00    -0.479 OA
ATOM     14  H   UNL     1      -7.760  -4.678 -21.772  1.00  0.00     0.296 HD
ENDBRANCH  11  13
ENDBRANCH   6  11
BRANCH   3  15
ATOM     15  O   UNL     1      -9.186  -0.299 -25.740  1.00  0.00    -0.452 OA
BRANCH  15  16
ATOM     16  C   UNL     1      -8.820  -0.565 -27.016  1.00  0.00     0.331 C 
ATOM     17  O   UNL     1      -9.168  -1.526 -27.679  1.00  0.00    -0.247 OA
BRANCH  16  18
ATOM     18  C   UNL     1      -7.929   0.520 -27.469  1.00  0.00     0.094 C 
ATOM     19  C   UNL     1      -7.358   0.451 -28.681  1.00  0.00     0.016 C 
BRANCH  19  20
ATOM     20  C   UNL     1      -6.461   1.480 -29.227  1.00  0.00    -0.021 A 
ATOM     21  C   UNL     1      -5.766   1.203 -30.416  1.00  0.00     0.058 A 
ATOM     22  C   UNL     1      -6.235   2.703 -28.572  1.00  0.00     0.012 A 
ATOM     23  C   UNL     1      -4.890   2.149 -30.941  1.00  0.00     0.157 A 
ATOM     24  C   UNL     1      -5.354   3.647 -29.107  1.00  0.00     0.051 A 
ATOM     25  C   UNL     1      -4.691   3.362 -30.289  1.00  0.00     0.157 A 
BRANCH  23  26
ATOM     26  O   UNL     1      -4.198   1.930 -32.100  1.00  0.00    -0.504 OA
ATOM     27  H   UNL     1      -3.629   1.151 -31.974  1.00  0.00     0.293 HD
ENDBRANCH  23  26
BRANCH  25  28
ATOM     28  O   UNL     1      -3.829   4.283 -30.810  1.00  0.00    -0.504 OA
ATOM     29  H   UNL     1      -2.940   3.927 -30.616  1.00  0.00     0.293 HD
ENDBRANCH  25  28
ENDBRANCH  19  20
ENDBRANCH  16  18
ENDBRANCH  15  16
ENDBRANCH   3  15
BRANCH   4  30
ATOM     30  O   UNL     1      -6.676  -1.288 -24.624  1.00  0.00    -0.455 OA
BRANCH  30  31
ATOM     31  C   UNL     1      -5.717  -0.366 -24.371  1.00  0.00     0.331 C 
ATOM     32  O   UNL     1      -5.509   0.188 -23.302  1.00  0.00    -0.247 OA
BRANCH  31  33
ATOM     33  C   UNL     1      -4.909  -0.072 -25.572  1.00  0.00     0.094 C 
ATOM     34  C   UNL     1      -4.632  -0.963 -26.537  1.00  0.00     0.016 C 
BRANCH  34  35
ATOM     35  C   UNL     1      -3.839  -0.636 -27.731  1.00  0.00    -0.021 A 
ATOM     36  C   UNL     1      -3.911  -1.488 -28.844  1.00  0.00     0.058 A 
ATOM     37  C   UNL     1      -2.976   0.473 -27.767  1.00  0.00     0.012 A 
ATOM     38  C   UNL     1      -3.150  -1.206 -29.975  1.00  0.00     0.157 A 
ATOM     39  C   UNL     1      -2.215   0.746 -28.906  1.00  0.00     0.051 A 
ATOM     40  C   UNL     1      -2.311  -0.096 -30.002  1.00  0.00     0.157 A 
BRANCH  38  41
ATOM     41  O   UNL     1      -3.192  -1.997 -31.091  1.00  0.00    -0.504 OA
ATOM     42  H   UNL     1      -2.472  -2.648 -31.032  1.00  0.00     0.293 HD
ENDBRANCH  38  41
BRANCH  40  43
ATOM     43  O   UNL     1      -1.567   0.171 -31.114  1.00  0.00    -0.504 OA
ATOM     44  H   UNL     1      -0.817  -0.456 -31.066  1.00  0.00     0.293 HD
ENDBRANCH  40  43
ENDBRANCH  34  35
ENDBRANCH  31  33
ENDBRANCH  30  31
ENDBRANCH   4  30
TORSDOF 16
ENDMDL
MODEL 2
REMARK VINA RESULT:      -8.7      1.970      4.261
REMARK SMILES O=C(/C=C/c1ccc(O)c(O)c1)O[C@@H]1[C@H](O)C[C@@](O)(C(=O)O)C[C@H]1OC(=O)/C=C/c1ccc(O)c(O)c1
REMARK SMILES IDX 17 1 15 2 14 3 24 4 23 5 18 6 16 7 19 9 20 11 21 12 22 13
REMARK SMILES IDX 13 15 2 16 1 17 3 18 4 19 5 20 12 21 6 22 10 23 7 24 8 25
REMARK SMILES IDX 11 26 9 28 25 30 26 31 27 32 28 33 29 34 30 35 37 36 31 37
REMARK SMILES IDX 35 38 32 39 33 40 36 41 34 43
REMARK H PARENT 16 8 19 10 22 14 11 27 9 29 36 42 34 44
ROOT
ATOM      1  C   UNL     1      -8.500  -2.087 -21.024  1.00  0.00     0.083 C 
ATOM      2  C   UNL     1      -7.636  -2.408 -22.240  1.00  0.00     0.162 C 
ATOM      3  C   UNL     1      -7.273  -1.134 -23.021  1.00  0.00     0.246 C 
ATOM      4  C   UNL     1      -8.539  -0.364 -23.448  1.00  0.00     0.223 C 
ATOM      5  C   UNL     1      -9.431  -0.061 -22.240  1.00  0.00     0.097 C 
ATOM      6  C   UNL     1      -9.764  -1.314 -21.429  1.00  0.00     0.168 C 
ENDROOT
BRANCH   2   7
ATOM      7  O   UNL     1      -8.389  -3.301 -23.078  1.00  0.00    -0.389 OA
ATOM      8  H   UNL     1      -7.753  -3.677 -23.721  1.00  0.00     0.211 HD
ENDBRANCH   2   7
BRANCH   6   9
ATOM      9  O   UNL     1     -10.643  -2.152 -22.210  1.00  0.00    -0.378 OA
ATOM     10  H   UNL     1     -10.079  -2.644 -22.853  1.00  0.00     0.212 HD
ENDBRANCH   6   9
BRANCH   6  11
ATOM     11  C   UNL     1     -10.536  -0.915 -20.163  1.00  0.00     0.335 C 
ATOM     12  O   UNL     1     -10.471  -1.493 -19.089  1.00  0.00    -0.249 OA
BRANCH  11  13
ATOM     13  O   UNL     1     -11.308   0.181 -20.376  1.00  0.00    -0.479 OA
ATOM     14  H   UNL     1     -11.810   0.019 -21.213  1.00  0.00     0.296 HD
ENDBRANCH  11  13
ENDBRANCH   6  11
BRANCH   3  15
ATOM     15  O   UNL     1      -6.543  -1.510 -24.211  1.00  0.00    -0.452 OA
BRANCH  15  16
ATOM     16  C   UNL     1      -5.450  -0.764 -24.493  1.00  0.00     0.331 C 
ATOM     17  O   UNL     1      -4.915   0.040 -23.750  1.00  0.00    -0.247 OA
BRANCH  16  18
ATOM     18  C   UNL     1      -5.011  -1.101 -25.861  1.00  0.00     0.094 C 
ATOM     19  C   UNL     1      -4.631  -0.124 -26.699  1.00  0.00     0.016 C 
BRANCH  19  20
ATOM     20  C   UNL     1      -4.173  -0.354 -28.077  1.00  0.00    -0.021 A 
ATOM     21  C   UNL     1      -4.194   0.721 -28.980  1.00  0.00     0.058 A 
ATOM     22  C   UNL     1      -3.769  -1.621 -28.531  1.00  0.00     0.012 A 
ATOM     23  C   UNL     1      -3.790   0.525 -30.297  1.00  0.00     0.157 A 
ATOM     24  C   UNL     1      -3.365  -1.810 -29.856  1.00  0.00     0.051 A 
ATOM     25  C   UNL     1      -3.378  -0.733 -30.727  1.00  0.00     0.157 A 
BRANCH  23  26
ATOM     26  O   UNL     1      -3.783   1.542 -31.212  1.00  0.00    -0.504 OA
ATOM     27  H   UNL     1      -3.734   2.386 -30.730  1.00  0.00     0.293 HD
ENDBRANCH  23  26
BRANCH  25  28
ATOM     28  O   UNL     1      -2.984  -0.917 -32.021  1.00  0.00    -0.504 OA
ATOM     29  H   UNL     1      -2.878  -0.013 -32.378  1.00  0.00     0.293 HD
ENDBRANCH  25  28
ENDBRANCH  19  20
ENDBRANCH  16  18
ENDBRANCH  15  16
ENDBRANCH   3  15
BRANCH   4  30
ATOM     30  O   UNL     1      -8.157   0.914 -24.010  1.00  0.00    -0.455 OA
BRANCH  30  31
ATOM     31  C   UNL     1      -8.715   1.252 -25.197  1.00  0.00     0.331 C 
ATOM     32  O   UNL     1      -9.211   2.331 -25.484  1.00  0.00    -0.247 OA
BRANCH  31  33
ATOM     33  C   UNL     1      -8.671   0.133 -26.161  1.00  0.00     0.094 C 
ATOM     34  C   UNL     1      -8.074   0.189 -27.362  1.00  0.00     0.016 C 
BRANCH  34  35
ATOM     35  C   UNL     1      -8.031  -0.948 -28.293  1.00  0.00    -0.021 A 
ATOM     36  C   UNL     1      -8.392  -2.220 -27.823  1.00  0.00     0.058 A 
ATOM     37  C   UNL     1      -7.590  -0.804 -29.620  1.00  0.00     0.012 A 
ATOM     38  C   UNL     1      -8.335  -3.313 -28.683  1.00  0.00     0.157 A 
ATOM     39  C   UNL     1      -7.535  -1.907 -30.475  1.00  0.00     0.051 A 
ATOM     40  C   UNL     1      -7.911  -3.152 -29.999  1.00  0.00     0.157 A 
BRANCH  38  41
ATOM     41  O   UNL     1      -8.686  -4.572 -28.280  1.00  0.00    -0.504 OA
ATOM     42  H   UNL     1      -8.727  -4.582 -27.308  1.00  0.00     0.293 HD
ENDBRANCH  38  41
BRANCH  40  43
ATOM     43  O   UNL     1      -7.857  -4.229 -30.836  1.00  0.00    -0.504 OA
ATOM     44  H   UNL     1      -8.669  -4.738 -30.635  1.00  0.00     0.293 HD
ENDBRANCH  40  43
ENDBRANCH  34  35
ENDBRANCH  31  33
ENDBRANCH  30  31
ENDBRANCH   4  30
TORSDOF 16
ENDMDL
MODEL 3
REMARK VINA RESULT:      -8.7      2.334      3.157
REMARK SMILES O=C(/C=C/c1ccc(O)c(O)c1)O[C@@H]1[C@H](O)C[C@@](O)(C(=O)O)C[C@H]1OC(=O)/C=C/c1ccc(O)c(O)c1
REMARK SMILES IDX 17 1 15 2 14 3 24 4 23 5 18 6 16 7 19 9 20 11 21 12 22 13
REMARK SMILES IDX 13 15 2 16 1 17 3 18 4 19 5 20 12 21 6 22 10 23 7 24 8 25
REMARK SMILES IDX 11 26 9 28 25 30 26 31 27 32 28 33 29 34 30 35 37 36 31 37
REMARK SMILES IDX 35 38 32 39 33 40 36 41 34 43
REMARK H PARENT 16 8 19 10 22 14 11 27 9 29 36 42 34 44
ROOT
ATOM      1  C   UNL     1     -10.684  -3.046 -22.812  1.00  0.00     0.083 C 
ATOM      2  C   UNL     1     -10.673  -2.552 -24.256  1.00  0.00     0.162 C 
ATOM      3  C   UNL     1      -9.241  -2.478 -24.811  1.00  0.00     0.246 C 
ATOM      4  C   UNL     1      -8.348  -1.583 -23.929  1.00  0.00     0.223 C 
ATOM      5  C   UNL     1      -8.373  -2.049 -22.470  1.00  0.00     0.097 C 
ATOM      6  C   UNL     1      -9.794  -2.169 -21.919  1.00  0.00     0.168 C 
ENDROOT
BRANCH   2   7
ATOM      7  O   UNL     1     -11.274  -1.247 -24.268  1.00  0.00    -0.389 OA
ATOM      8  H   UNL     1     -11.641  -1.120 -25.167  1.00  0.00     0.211 HD
ENDBRANCH   2   7
BRANCH   6   9
ATOM      9  O   UNL     1     -10.355  -0.845 -21.788  1.00  0.00    -0.378 OA
ATOM     10  H   UNL     1     -11.131  -0.918 -21.182  1.00  0.00     0.212 HD
ENDBRANCH   6   9
BRANCH   6  11
ATOM     11  C   UNL     1      -9.747  -2.775 -20.509  1.00  0.00     0.335 C 
ATOM     12  O   UNL     1     -10.220  -2.261 -19.507  1.00  0.00    -0.249 OA
BRANCH  11  13
ATOM     13  O   UNL     1      -9.114  -3.976 -20.504  1.00  0.00    -0.479 OA
ATOM     14  H   UNL     1      -8.525  -3.985 -19.709  1.00  0.00     0.296 HD
ENDBRANCH  11  13
ENDBRANCH   6  11
BRANCH   3  15
ATOM     15  O   UNL     1      -9.286  -1.912 -26.141  1.00  0.00    -0.452 OA
BRANCH  15  16
ATOM     16  C   UNL     1      -9.528  -2.784 -27.147  1.00  0.00     0.331 C 
ATOM     17  O   UNL     1      -9.594  -3.996 -27.048  1.00  0.00    -0.247 OA
BRANCH  16  18
ATOM     18  C   UNL     1      -9.707  -2.007 -28.388  1.00  0.00     0.094 C 
ATOM     19  C   UNL     1      -8.701  -1.923 -29.273  1.00  0.00     0.016 C 
BRANCH  19  20
ATOM     20  C   UNL     1      -8.780  -1.180 -30.539  1.00  0.00    -0.021 A 
ATOM     21  C   UNL     1     -10.039  -0.995 -31.132  1.00  0.00     0.058 A 
ATOM     22  C   UNL     1      -7.635  -0.699 -31.198  1.00  0.00     0.012 A 
ATOM     23  C   UNL     1     -10.139  -0.317 -32.344  1.00  0.00     0.157 A 
ATOM     24  C   UNL     1      -7.745  -0.020 -32.415  1.00  0.00     0.051 A 
ATOM     25  C   UNL     1      -8.998   0.166 -32.976  1.00  0.00     0.157 A 
BRANCH  23  26
ATOM     26  O   UNL     1     -11.343  -0.103 -32.957  1.00  0.00    -0.504 OA
ATOM     27  H   UNL     1     -11.303   0.753 -33.418  1.00  0.00     0.293 HD
ENDBRANCH  23  26
BRANCH  25  28
ATOM     28  O   UNL     1      -9.104   0.829 -34.165  1.00  0.00    -0.504 OA
ATOM     29  H   UNL     1      -8.278   0.615 -34.641  1.00  0.00     0.293 HD
ENDBRANCH  25  28
ENDBRANCH  19  20
ENDBRANCH  16  18
ENDBRANCH  15  16
ENDBRANCH   3  15
BRANCH   4  30
ATOM     30  O   UNL     1      -6.974  -1.689 -24.373  1.00  0.00    -0.455 OA
BRANCH  30  31
ATOM     31  C   UNL     1      -6.340  -0.532 -24.682  1.00  0.00     0.331 C 
ATOM     32  O   UNL     1      -6.399   0.516 -24.057  1.00  0.00    -0.247 OA
BRANCH  31  33
ATOM     33  C   UNL     1      -5.534  -0.661 -25.913  1.00  0.00     0.094 C 
ATOM     34  C   UNL     1      -5.987  -0.393 -27.148  1.00  0.00     0.016 C 
BRANCH  34  35
ATOM     35  C   UNL     1      -5.155  -0.513 -28.354  1.00  0.00    -0.021 A 
ATOM     36  C   UNL     1      -4.977   0.617 -29.167  1.00  0.00     0.058 A 
ATOM     37  C   UNL     1      -4.580  -1.736 -28.739  1.00  0.00     0.012 A 
ATOM     38  C   UNL     1      -4.211   0.517 -30.325  1.00  0.00     0.157 A 
ATOM     39  C   UNL     1      -3.814  -1.827 -29.905  1.00  0.00     0.051 A 
ATOM     40  C   UNL     1      -3.635  -0.697 -30.686  1.00  0.00     0.157 A 
BRANCH  38  41
ATOM     41  O   UNL     1      -3.997   1.590 -31.146  1.00  0.00    -0.504 OA
ATOM     42  H   UNL     1      -3.774   1.258 -32.033  1.00  0.00     0.293 HD
ENDBRANCH  38  41
BRANCH  40  43
ATOM     43  O   UNL     1      -2.887  -0.786 -31.824  1.00  0.00    -0.504 OA
ATOM     44  H   UNL     1      -2.432   0.078 -31.888  1.00  0.00     0.293 HD
ENDBRANCH  40  43
ENDBRANCH  34  35
ENDBRANCH  31  33
ENDBRANCH  30  31
ENDBRANCH   4  30
TORSDOF 16
ENDMDL
MODEL 4
REMARK VINA RESULT:      -8.6      1.337      4.101
REMARK SMILES O=C(/C=C/c1ccc(O)c(O)c1)O[C@@H]1[C@H](O)C[C@@](O)(C(=O)O)C[C@H]1OC(=O)/C=C/c1ccc(O)c(O)c1
REMARK SMILES IDX 17 1 15 2 14 3 24 4 23 5 18 6 16 7 19 9 20 11 21 12 22 13
REMARK SMILES IDX 13 15 2 16 1 17 3 18 4 19 5 20 12 21 6 22 10 23 7 24 8 25
REMARK SMILES IDX 11 26 9 28 25 30 26 31 27 32 28 33 29 34 30 35 37 36 31 37
REMARK SMILES IDX 35 38 32 39 33 40 36 41 34 43
REMARK H PARENT 16 8 19 10 22 14 11 27 9 29 36 42 34 44
ROOT
ATOM      1  C   UNL     1      -8.318  -2.002 -20.736  1.00  0.00     0.083 C 
ATOM      2  C   UNL     1      -7.473  -2.353 -21.958  1.00  0.00     0.162 C 
ATOM      3  C   UNL     1      -7.654  -1.315 -23.080  1.00  0.00     0.246 C 
ATOM      4  C   UNL     1      -9.139  -1.174 -23.473  1.00  0.00     0.223 C 
ATOM      5  C   UNL     1     -10.003  -0.852 -22.249  1.00  0.00     0.097 C 
ATOM      6  C   UNL     1      -9.800  -1.852 -21.110  1.00  0.00     0.168 C 
ENDROOT
BRANCH   2   7
ATOM      7  O   UNL     1      -7.895  -3.648 -22.415  1.00  0.00    -0.389 OA
ATOM      8  H   UNL     1      -7.332  -3.866 -23.186  1.00  0.00     0.211 HD
ENDBRANCH   2   7
BRANCH   6   9
ATOM      9  O   UNL     1     -10.355  -3.124 -21.505  1.00  0.00    -0.378 OA
ATOM     10  H   UNL     1      -9.597  -3.741 -21.641  1.00  0.00     0.212 HD
ENDBRANCH   6   9
BRANCH   6  11
ATOM     11  C   UNL     1     -10.583  -1.387 -19.875  1.00  0.00     0.335 C 
ATOM     12  O   UNL     1     -10.714  -2.027 -18.843  1.00  0.00    -0.249 OA
BRANCH  11  13
ATOM     13  O   UNL     1     -11.119  -0.153 -20.060  1.00  0.00    -0.479 OA
ATOM     14  H   UNL     1     -11.579  -0.170 -20.936  1.00  0.00     0.296 HD
ENDBRANCH  11  13
ENDBRANCH   6  11
BRANCH   3  15
ATOM     15  O   UNL     1      -6.913  -1.751 -24.241  1.00  0.00    -0.452 OA
BRANCH  15  16
ATOM     16  C   UNL     1      -5.825  -1.012 -24.560  1.00  0.00     0.331 C 
ATOM     17  O   UNL     1      -5.210  -0.275 -23.810  1.00  0.00    -0.247 OA
BRANCH  16  18
ATOM     18  C   UNL     1      -5.507  -1.260 -25.980  1.00  0.00     0.094 C 
ATOM     19  C   UNL     1      -4.450  -0.653 -26.542  1.00  0.00     0.016 C 
BRANCH  19  20
ATOM     20  C   UNL     1      -4.047  -0.837 -27.943  1.00  0.00    -0.021 A 
ATOM     21  C   UNL     1      -2.924  -0.137 -28.416  1.00  0.00     0.058 A 
ATOM     22  C   UNL     1      -4.776  -1.642 -28.835  1.00  0.00     0.012 A 
ATOM     23  C   UNL     1      -2.535  -0.273 -29.745  1.00  0.00     0.157 A 
ATOM     24  C   UNL     1      -4.379  -1.772 -30.169  1.00  0.00     0.051 A 
ATOM     25  C   UNL     1      -3.259  -1.087 -30.611  1.00  0.00     0.157 A 
BRANCH  23  26
ATOM     26  O   UNL     1      -1.444   0.379 -30.251  1.00  0.00    -0.504 OA
ATOM     27  H   UNL     1      -1.544   1.330 -30.068  1.00  0.00     0.293 HD
ENDBRANCH  23  26
BRANCH  25  28
ATOM     28  O   UNL     1      -2.872  -1.213 -31.914  1.00  0.00    -0.504 OA
ATOM     29  H   UNL     1      -2.977  -0.317 -32.290  1.00  0.00     0.293 HD
ENDBRANCH  25  28
ENDBRANCH  19  20
ENDBRANCH  16  18
ENDBRANCH  15  16
ENDBRANCH   3  15
BRANCH   4  30
ATOM     30  O   UNL     1      -9.290  -0.063 -24.389  1.00  0.00    -0.455 OA
BRANCH  30  31
ATOM     31  C   UNL     1     -10.026  -0.286 -25.503  1.00  0.00     0.331 C 
ATOM     32  O   UNL     1     -11.200  -0.624 -25.541  1.00  0.00    -0.247 OA
BRANCH  31  33
ATOM     33  C   UNL     1      -9.235  -0.077 -26.734  1.00  0.00     0.094 C 
ATOM     34  C   UNL     1      -8.330   0.900 -26.897  1.00  0.00     0.016 C 
BRANCH  34  35
ATOM     35  C   UNL     1      -7.544   1.071 -28.128  1.00  0.00    -0.021 A 
ATOM     36  C   UNL     1      -6.466   1.970 -28.122  1.00  0.00     0.058 A 
ATOM     37  C   UNL     1      -7.875   0.400 -29.318  1.00  0.00     0.012 A 
ATOM     38  C   UNL     1      -5.725   2.162 -29.284  1.00  0.00     0.157 A 
ATOM     39  C   UNL     1      -7.126   0.602 -30.480  1.00  0.00     0.051 A 
ATOM     40  C   UNL     1      -6.055   1.480 -30.452  1.00  0.00     0.157 A 
BRANCH  38  41
ATOM     41  O   UNL     1      -4.658   3.018 -29.329  1.00  0.00    -0.504 OA
ATOM     42  H   UNL     1      -4.791   3.709 -28.658  1.00  0.00     0.293 HD
ENDBRANCH  38  41
BRANCH  40  43
ATOM     43  O   UNL     1      -5.324   1.676 -31.587  1.00  0.00    -0.504 OA
ATOM     44  H   UNL     1      -5.582   0.939 -32.177  1.00  0.00     0.293 HD
ENDBRANCH  40  43
ENDBRANCH  34  35
ENDBRANCH  31  33
ENDBRANCH  30  31
ENDBRANCH   4  30
TORSDOF 16
ENDMDL
MODEL 5
REMARK VINA RESULT:      -8.6      2.580      3.861
REMARK SMILES O=C(/C=C/c1ccc(O)c(O)c1)O[C@@H]1[C@H](O)C[C@@](O)(C(=O)O)C[C@H]1OC(=O)/C=C/c1ccc(O)c(O)c1
REMARK SMILES IDX 17 1 15 2 14 3 24 4 23 5 18 6 16 7 19 9 20 11 21 12 22 13
REMARK SMILES IDX 13 15 2 16 1 17 3 18 4 19 5 20 12 21 6 22 10 23 7 24 8 25
REMARK SMILES IDX 11 26 9 28 25 30 26 31 27 32 28 33 29 34 30 35 37 36 31 37
REMARK SMILES IDX 35 38 32 39 33 40 36 41 34 43
REMARK H PARENT 16 8 19 10 22 14 11 27 9 29 36 42 34 44
ROOT
ATOM      1  C   UNL     1     -11.575  -3.448 -25.231  1.00  0.00     0.083 C 
ATOM      2  C   UNL     1     -10.416  -2.457 -25.162  1.00  0.00     0.162 C 
ATOM      3  C   UNL     1      -9.949  -2.044 -26.568  1.00  0.00     0.246 C 
ATOM      4  C   UNL     1      -9.555  -3.276 -27.407  1.00  0.00     0.223 C 
ATOM      5  C   UNL     1     -10.699  -4.294 -27.459  1.00  0.00     0.097 C 
ATOM      6  C   UNL     1     -11.202  -4.680 -26.068  1.00  0.00     0.168 C 
ENDROOT
BRANCH   2   7
ATOM      7  O   UNL     1      -9.342  -3.100 -24.456  1.00  0.00    -0.389 OA
ATOM      8  H   UNL     1      -8.648  -3.287 -25.120  1.00  0.00     0.211 HD
ENDBRANCH   2   7
BRANCH   6   9
ATOM      9  O   UNL     1     -10.182  -5.456 -25.404  1.00  0.00    -0.378 OA
ATOM     10  H   UNL     1     -10.513  -5.651 -24.495  1.00  0.00     0.212 HD
ENDBRANCH   6   9
BRANCH   6  11
ATOM     11  C   UNL     1     -12.435  -5.586 -26.203  1.00  0.00     0.335 C 
ATOM     12  O   UNL     1     -13.299  -5.727 -25.352  1.00  0.00    -0.249 OA
BRANCH  11  13
ATOM     13  O   UNL     1     -12.459  -6.218 -27.404  1.00  0.00    -0.479 OA
ATOM     14  H   UNL     1     -12.199  -5.548 -28.085  1.00  0.00     0.296 HD
ENDBRANCH  11  13
ENDBRANCH   6  11
BRANCH   3  15
ATOM     15  O   UNL     1      -8.791  -1.187 -26.440  1.00  0.00    -0.452 OA
BRANCH  15  16
ATOM     16  C   UNL     1      -9.045   0.112 -26.162  1.00  0.00     0.331 C 
ATOM     17  O   UNL     1      -9.969   0.537 -25.491  1.00  0.00    -0.247 OA
BRANCH  16  18
ATOM     18  C   UNL     1      -7.999   0.928 -26.808  1.00  0.00     0.094 C 
ATOM     19  C   UNL     1      -7.853   0.891 -28.141  1.00  0.00     0.016 C 
BRANCH  19  20
ATOM     20  C   UNL     1      -6.847   1.668 -28.880  1.00  0.00    -0.021 A 
ATOM     21  C   UNL     1      -6.061   2.593 -28.174  1.00  0.00     0.058 A 
ATOM     22  C   UNL     1      -6.687   1.555 -30.272  1.00  0.00     0.012 A 
ATOM     23  C   UNL     1      -5.119   3.360 -28.854  1.00  0.00     0.157 A 
ATOM     24  C   UNL     1      -5.739   2.330 -30.947  1.00  0.00     0.051 A 
ATOM     25  C   UNL     1      -4.961   3.224 -30.230  1.00  0.00     0.157 A 
BRANCH  23  26
ATOM     26  O   UNL     1      -4.322   4.267 -28.210  1.00  0.00    -0.504 OA
ATOM     27  H   UNL     1      -4.614   5.161 -28.459  1.00  0.00     0.293 HD
ENDBRANCH  23  26
BRANCH  25  28
ATOM     28  O   UNL     1      -4.036   3.981 -30.889  1.00  0.00    -0.504 OA
ATOM     29  H   UNL     1      -3.221   3.442 -30.874  1.00  0.00     0.293 HD
ENDBRANCH  25  28
ENDBRANCH  19  20
ENDBRANCH  16  18
ENDBRANCH  15  16
ENDBRANCH   3  15
BRANCH   4  30
ATOM     30  O   UNL     1      -9.304  -2.866 -28.773  1.00  0.00    -0.455 OA
BRANCH  30  31
ATOM     31  C   UNL     1      -8.136  -3.271 -29.328  1.00  0.00     0.331 C 
ATOM     32  O   UNL     1      -7.991  -4.186 -30.124  1.00  0.00    -0.247 OA
BRANCH  31  33
ATOM     33  C   UNL     1      -6.994  -2.465 -28.850  1.00  0.00     0.094 C 
ATOM     34  C   UNL     1      -5.931  -2.135 -29.601  1.00  0.00     0.016 C 
BRANCH  34  35
ATOM     35  C   UNL     1      -4.817  -1.316 -29.103  1.00  0.00    -0.021 A 
ATOM     36  C   UNL     1      -3.825  -0.903 -30.006  1.00  0.00     0.058 A 
ATOM     37  C   UNL     1      -4.694  -0.980 -27.743  1.00  0.00     0.012 A 
ATOM     38  C   UNL     1      -2.750  -0.146 -29.548  1.00  0.00     0.157 A 
ATOM     39  C   UNL     1      -3.611  -0.220 -27.293  1.00  0.00     0.051 A 
ATOM     40  C   UNL     1      -2.649   0.192 -28.201  1.00  0.00     0.157 A 
BRANCH  38  41
ATOM     41  O   UNL     1      -1.763   0.291 -30.387  1.00  0.00    -0.504 OA
ATOM     42  H   UNL     1      -2.167   0.852 -31.071  1.00  0.00     0.293 HD
ENDBRANCH  38  41
BRANCH  40  43
ATOM     43  O   UNL     1      -1.592   0.934 -27.761  1.00  0.00    -0.504 OA
ATOM     44  H   UNL     1      -1.082   0.322 -27.192  1.00  0.00     0.293 HD
ENDBRANCH  40  43
ENDBRANCH  34  35
ENDBRANCH  31  33
ENDBRANCH  30  31
ENDBRANCH   4  30
TORSDOF 16
ENDMDL
MODEL 6
REMARK VINA RESULT:      -8.5      3.028      4.305
REMARK SMILES O=C(/C=C/c1ccc(O)c(O)c1)O[C@@H]1[C@H](O)C[C@@](O)(C(=O)O)C[C@H]1OC(=O)/C=C/c1ccc(O)c(O)c1
REMARK SMILES IDX 17 1 15 2 14 3 24 4 23 5 18 6 16 7 19 9 20 11 21 12 22 13
REMARK SMILES IDX 13 15 2 16 1 17 3 18 4 19 5 20 12 21 6 22 10 23 7 24 8 25
REMARK SMILES IDX 11 26 9 28 25 30 26 31 27 32 28 33 29 34 30 35 37 36 31 37
REMARK SMILES IDX 35 38 32 39 33 40 36 41 34 43
REMARK H PARENT 16 8 19 10 22 14 11 27 9 29 36 42 34 44
ROOT
ATOM      1  C   UNL     1     -11.600  -3.479 -25.217  1.00  0.00     0.083 C 
ATOM      2  C   UNL     1     -10.465  -2.461 -25.135  1.00  0.00     0.162 C 
ATOM      3  C   UNL     1      -9.960  -2.073 -26.535  1.00  0.00     0.246 C 
ATOM      4  C   UNL     1      -9.512  -3.317 -27.330  1.00  0.00     0.223 C 
ATOM      5  C   UNL     1     -10.633  -4.360 -27.394  1.00  0.00     0.097 C 
ATOM      6  C   UNL     1     -11.174  -4.723 -26.010  1.00  0.00     0.168 C 
ENDROOT
BRANCH   2   7
ATOM      7  O   UNL     1      -9.402  -3.063 -24.378  1.00  0.00    -0.389 OA
ATOM      8  H   UNL     1      -9.166  -3.891 -24.844  1.00  0.00     0.211 HD
ENDBRANCH   2   7
BRANCH   6   9
ATOM      9  O   UNL     1     -10.160  -5.460 -25.294  1.00  0.00    -0.378 OA
ATOM     10  H   UNL     1      -9.440  -5.662 -25.938  1.00  0.00     0.212 HD
ENDBRANCH   6   9
BRANCH   6  11
ATOM     11  C   UNL     1     -12.382  -5.658 -26.162  1.00  0.00     0.335 C 
ATOM     12  O   UNL     1     -13.228  -5.859 -25.304  1.00  0.00    -0.249 OA
BRANCH  11  13
ATOM     13  O   UNL     1     -12.408  -6.243 -27.387  1.00  0.00    -0.479 OA
ATOM     14  H   UNL     1     -11.516  -6.645 -27.531  1.00  0.00     0.296 HD
ENDBRANCH  11  13
ENDBRANCH   6  11
BRANCH   3  15
ATOM     15  O   UNL     1      -8.825  -1.189 -26.392  1.00  0.00    -0.452 OA
BRANCH  15  16
ATOM     16  C   UNL     1      -9.040   0.107 -26.719  1.00  0.00     0.331 C 
ATOM     17  O   UNL     1      -9.201   1.028 -25.938  1.00  0.00    -0.247 OA
BRANCH  16  18
ATOM     18  C   UNL     1      -9.037   0.211 -28.190  1.00  0.00     0.094 C 
ATOM     19  C   UNL     1      -7.918   0.582 -28.830  1.00  0.00     0.016 C 
BRANCH  19  20
ATOM     20  C   UNL     1      -7.809   0.711 -30.291  1.00  0.00    -0.021 A 
ATOM     21  C   UNL     1      -8.717   0.004 -31.096  1.00  0.00     0.058 A 
ATOM     22  C   UNL     1      -6.798   1.470 -30.903  1.00  0.00     0.012 A 
ATOM     23  C   UNL     1      -8.621   0.087 -32.482  1.00  0.00     0.157 A 
ATOM     24  C   UNL     1      -6.708   1.548 -32.296  1.00  0.00     0.051 A 
ATOM     25  C   UNL     1      -7.623   0.857 -33.074  1.00  0.00     0.157 A 
BRANCH  23  26
ATOM     26  O   UNL     1      -9.486  -0.574 -33.310  1.00  0.00    -0.504 OA
ATOM     27  H   UNL     1      -9.017  -1.331 -33.701  1.00  0.00     0.293 HD
ENDBRANCH  23  26
BRANCH  25  28
ATOM     28  O   UNL     1      -7.535   0.933 -34.433  1.00  0.00    -0.504 OA
ATOM     29  H   UNL     1      -7.555   0.003 -34.734  1.00  0.00     0.293 HD
ENDBRANCH  25  28
ENDBRANCH  19  20
ENDBRANCH  16  18
ENDBRANCH  15  16
ENDBRANCH   3  15
BRANCH   4  30
ATOM     30  O   UNL     1      -9.225  -2.936 -28.696  1.00  0.00    -0.455 OA
BRANCH  30  31
ATOM     31  C   UNL     1      -8.071  -3.402 -29.231  1.00  0.00     0.331 C 
ATOM     32  O   UNL     1      -7.957  -4.357 -29.986  1.00  0.00    -0.247 OA
BRANCH  31  33
ATOM     33  C   UNL     1      -6.903  -2.613 -28.789  1.00  0.00     0.094 C 
ATOM     34  C   UNL     1      -5.883  -2.256 -29.586  1.00  0.00     0.016 C 
BRANCH  34  35
ATOM     35  C   UNL     1      -4.743  -1.454 -29.122  1.00  0.00    -0.021 A 
ATOM     36  C   UNL     1      -4.808  -0.857 -27.853  1.00  0.00     0.058 A 
ATOM     37  C   UNL     1      -3.616  -1.228 -29.932  1.00  0.00     0.012 A 
ATOM     38  C   UNL     1      -3.747  -0.075 -27.406  1.00  0.00     0.157 A 
ATOM     39  C   UNL     1      -2.557  -0.440 -29.474  1.00  0.00     0.051 A 
ATOM     40  C   UNL     1      -2.631   0.128 -28.213  1.00  0.00     0.157 A 
BRANCH  38  41
ATOM     41  O   UNL     1      -3.755   0.520 -26.174  1.00  0.00    -0.504 OA
ATOM     42  H   UNL     1      -3.974  -0.155 -25.509  1.00  0.00     0.293 HD
ENDBRANCH  38  41
BRANCH  40  43
ATOM     43  O   UNL     1      -1.596   0.897 -27.767  1.00  0.00    -0.504 OA
ATOM     44  H   UNL     1      -2.025   1.615 -27.258  1.00  0.00     0.293 HD
ENDBRANCH  40  43
ENDBRANCH  34  35
ENDBRANCH  31  33
ENDBRANCH  30  31
ENDBRANCH   4  30
TORSDOF 16
ENDMDL
MODEL 7
REMARK VINA RESULT:      -8.3      2.229      4.539
REMARK SMILES O=C(/C=C/c1ccc(O)c(O)c1)O[C@@H]1[C@H](O)C[C@@](O)(C(=O)O)C[C@H]1OC(=O)/C=C/c1ccc(O)c(O)c1
REMARK SMILES IDX 17 1 15 2 14 3 24 4 23 5 18 6 16 7 19 9 20 11 21 12 22 13
REMARK SMILES IDX 13 15 2 16 1 17 3 18 4 19 5 20 12 21 6 22 10 23 7 24 8 25
REMARK SMILES IDX 11 26 9 28 25 30 26 31 27 32 28 33 29 34 30 35 37 36 31 37
REMARK SMILES IDX 35 38 32 39 33 40 36 41 34 43
REMARK H PARENT 16 8 19 10 22 14 11 27 9 29 36 42 34 44
ROOT
ATOM      1  C   UNL     1      -7.989  -1.387 -22.146  1.00  0.00     0.083 C 
ATOM      2  C   UNL     1      -7.344  -1.031 -23.483  1.00  0.00     0.162 C 
ATOM      3  C   UNL     1      -8.401  -0.859 -24.586  1.00  0.00     0.246 C 
ATOM      4  C   UNL     1      -9.269  -2.126 -24.728  1.00  0.00     0.223 C 
ATOM      5  C   UNL     1      -9.898  -2.514 -23.386  1.00  0.00     0.097 C 
ATOM      6  C   UNL     1      -8.862  -2.645 -22.269  1.00  0.00     0.168 C 
ENDROOT
BRANCH   2   7
ATOM      7  O   UNL     1      -6.445  -2.099 -23.825  1.00  0.00    -0.389 OA
ATOM      8  H   UNL     1      -6.640  -2.336 -24.754  1.00  0.00     0.211 HD
ENDBRANCH   2   7
BRANCH   6   9
ATOM      9  O   UNL     1      -8.045  -3.807 -22.528  1.00  0.00    -0.378 OA
ATOM     10  H   UNL     1      -8.081  -4.372 -21.720  1.00  0.00     0.212 HD
ENDBRANCH   6   9
BRANCH   6  11
ATOM     11  C   UNL     1      -9.576  -2.891 -20.933  1.00  0.00     0.335 C 
ATOM     12  O   UNL     1     -10.497  -2.219 -20.494  1.00  0.00    -0.249 OA
BRANCH  11  13
ATOM     13  O   UNL     1      -9.064  -3.970 -20.286  1.00  0.00    -0.479 OA
ATOM     14  H   UNL     1      -8.201  -3.685 -19.896  1.00  0.00     0.296 HD
ENDBRANCH  11  13
ENDBRANCH   6  11
BRANCH   3  15
ATOM     15  O   UNL     1      -7.728  -0.623 -25.843  1.00  0.00    -0.452 OA
BRANCH  15  16
ATOM     16  C   UNL     1      -7.650   0.669 -26.238  1.00  0.00     0.331 C 
ATOM     17  O   UNL     1      -8.335   1.590 -25.830  1.00  0.00    -0.247 OA
BRANCH  16  18
ATOM     18  C   UNL     1      -6.580   0.771 -27.249  1.00  0.00     0.094 C 
ATOM     19  C   UNL     1      -5.412   0.141 -27.049  1.00  0.00     0.016 C 
BRANCH  19  20
ATOM     20  C   UNL     1      -4.287   0.175 -27.995  1.00  0.00    -0.021 A 
ATOM     21  C   UNL     1      -4.492  -0.297 -29.301  1.00  0.00     0.058 A 
ATOM     22  C   UNL     1      -3.005   0.612 -27.619  1.00  0.00     0.012 A 
ATOM     23  C   UNL     1      -3.437  -0.300 -30.209  1.00  0.00     0.157 A 
ATOM     24  C   UNL     1      -1.950   0.605 -28.537  1.00  0.00     0.051 A 
ATOM     25  C   UNL     1      -2.178   0.151 -29.826  1.00  0.00     0.157 A 
BRANCH  23  26
ATOM     26  O   UNL     1      -3.589  -0.741 -31.495  1.00  0.00    -0.504 OA
ATOM     27  H   UNL     1      -4.507  -1.044 -31.608  1.00  0.00     0.293 HD
ENDBRANCH  23  26
BRANCH  25  28
ATOM     28  O   UNL     1      -1.148   0.144 -30.722  1.00  0.00    -0.504 OA
ATOM     29  H   UNL     1      -0.956  -0.803 -30.870  1.00  0.00     0.293 HD
ENDBRANCH  25  28
ENDBRANCH  19  20
ENDBRANCH  16  18
ENDBRANCH  15  16
ENDBRANCH   3  15
BRANCH   4  30
ATOM     30  O   UNL     1     -10.364  -1.860 -25.636  1.00  0.00    -0.455 OA
BRANCH  30  31
ATOM     31  C   UNL     1     -10.615  -2.796 -26.582  1.00  0.00     0.331 C 
ATOM     32  O   UNL     1     -11.166  -3.873 -26.408  1.00  0.00    -0.247 OA
BRANCH  31  33
ATOM     33  C   UNL     1     -10.128  -2.376 -27.912  1.00  0.00     0.094 C 
ATOM     34  C   UNL     1     -10.153  -1.112 -28.365  1.00  0.00     0.016 C 
BRANCH  34  35
ATOM     35  C   UNL     1      -9.644  -0.721 -29.687  1.00  0.00    -0.021 A 
ATOM     36  C   UNL     1     -10.548  -0.226 -30.640  1.00  0.00     0.058 A 
ATOM     37  C   UNL     1      -8.292  -0.879 -30.037  1.00  0.00     0.012 A 
ATOM     38  C   UNL     1     -10.087   0.128 -31.905  1.00  0.00     0.157 A 
ATOM     39  C   UNL     1      -7.840  -0.523 -31.311  1.00  0.00     0.051 A 
ATOM     40  C   UNL     1      -8.742  -0.019 -32.233  1.00  0.00     0.157 A 
BRANCH  38  41
ATOM     41  O   UNL     1     -10.923   0.627 -32.866  1.00  0.00    -0.504 OA
ATOM     42  H   UNL     1     -10.575   0.372 -33.738  1.00  0.00     0.293 HD
ENDBRANCH  38  41
BRANCH  40  43
ATOM     43  O   UNL     1      -8.300   0.329 -33.476  1.00  0.00    -0.504 OA
ATOM     44  H   UNL     1      -8.857   1.092 -33.731  1.00  0.00     0.293 HD
ENDBRANCH  40  43
ENDBRANCH  34  35
ENDBRANCH  31  33
ENDBRANCH  30  31
ENDBRANCH   4  30
TORSDOF 16
ENDMDL
MODEL 8
REMARK VINA RESULT:      -8.3      1.838      3.251
REMARK SMILES O=C(/C=C/c1ccc(O)c(O)c1)O[C@@H]1[C@H](O)C[C@@](O)(C(=O)O)C[C@H]1OC(=O)/C=C/c1ccc(O)c(O)c1
REMARK SMILES IDX 17 1 15 2 14 3 24 4 23 5 18 6 16 7 19 9 20 11 21 12 22 13
REMARK SMILES IDX 13 15 2 16 1 17 3 18 4 19 5 20 12 21 6 22 10 23 7 24 8 25
REMARK SMILES IDX 11 26 9 28 25 30 26 31 27 32 28 33 29 34 30 35 37 36 31 37
REMARK SMILES IDX 35 38 32 39 33 40 36 41 34 43
REMARK H PARENT 16 8 19 10 22 14 11 27 9 29 36 42 34 44
ROOT
ATOM      1  C   UNL     1      -9.941  -1.615 -22.150  1.00  0.00     0.083 C 
ATOM      2  C   UNL     1      -9.621  -0.203 -22.635  1.00  0.00     0.162 C 
ATOM      3  C   UNL     1      -8.551  -0.221 -23.741  1.00  0.00     0.246 C 
ATOM      4  C   UNL     1      -7.268  -0.930 -23.262  1.00  0.00     0.223 C 
ATOM      5  C   UNL     1      -7.580  -2.338 -22.743  1.00  0.00     0.097 C 
ATOM      6  C   UNL     1      -8.673  -2.339 -21.674  1.00  0.00     0.168 C 
ENDROOT
BRANCH   2   7
ATOM      7  O   UNL     1      -9.145   0.543 -21.503  1.00  0.00    -0.389 OA
ATOM      8  H   UNL     1      -9.451   0.061 -20.707  1.00  0.00     0.211 HD
ENDBRANCH   2   7
BRANCH   6   9
ATOM      9  O   UNL     1      -8.154  -1.720 -20.478  1.00  0.00    -0.378 OA
ATOM     10  H   UNL     1      -7.303  -1.284 -20.724  1.00  0.00     0.212 HD
ENDBRANCH   6   9
BRANCH   6  11
ATOM     11  C   UNL     1      -9.031  -3.787 -21.309  1.00  0.00     0.335 C 
ATOM     12  O   UNL     1      -8.986  -4.737 -22.075  1.00  0.00    -0.249 OA
BRANCH  11  13
ATOM     13  O   UNL     1      -9.401  -3.894 -20.007  1.00  0.00    -0.479 OA
ATOM     14  H   UNL     1      -9.741  -3.007 -19.732  1.00  0.00     0.296 HD
ENDBRANCH  11  13
ENDBRANCH   6  11
BRANCH   3  15
ATOM     15  O   UNL     1      -8.218   1.142 -24.088  1.00  0.00    -0.452 OA
BRANCH  15  16
ATOM     16  C   UNL     1      -8.718   1.592 -25.262  1.00  0.00     0.331 C 
ATOM     17  O   UNL     1      -9.024   2.743 -25.520  1.00  0.00    -0.247 OA
BRANCH  16  18
ATOM     18  C   UNL     1      -8.821   0.444 -26.182  1.00  0.00     0.094 C 
ATOM     19  C   UNL     1      -8.095   0.426 -27.310  1.00  0.00     0.016 C 
BRANCH  19  20
ATOM     20  C   UNL     1      -8.122  -0.671 -28.289  1.00  0.00    -0.021 A 
ATOM     21  C   UNL     1      -8.075  -0.353 -29.656  1.00  0.00     0.058 A 
ATOM     22  C   UNL     1      -8.247  -2.017 -27.903  1.00  0.00     0.012 A 
ATOM     23  C   UNL     1      -8.125  -1.371 -30.604  1.00  0.00     0.157 A 
ATOM     24  C   UNL     1      -8.297  -3.033 -28.862  1.00  0.00     0.051 A 
ATOM     25  C   UNL     1      -8.233  -2.700 -30.205  1.00  0.00     0.157 A 
BRANCH  23  26
ATOM     26  O   UNL     1      -8.073  -1.114 -31.946  1.00  0.00    -0.504 OA
ATOM     27  H   UNL     1      -8.017  -0.150 -32.071  1.00  0.00     0.293 HD
ENDBRANCH  23  26
BRANCH  25  28
ATOM     28  O   UNL     1      -8.283  -3.692 -31.141  1.00  0.00    -0.504 OA
ATOM     29  H   UNL     1      -7.417  -4.140 -31.072  1.00  0.00     0.293 HD
ENDBRANCH  25  28
ENDBRANCH  19  20
ENDBRANCH  16  18
ENDBRANCH  15  16
ENDBRANCH   3  15
BRANCH   4  30
ATOM     30  O   UNL     1      -6.364  -1.093 -24.380  1.00  0.00    -0.455 OA
BRANCH  30  31
ATOM     31  C   UNL     1      -5.269  -0.295 -24.403  1.00  0.00     0.331 C 
ATOM     32  O   UNL     1      -4.797   0.314 -23.454  1.00  0.00    -0.247 OA
BRANCH  31  33
ATOM     33  C   UNL     1      -4.673  -0.221 -25.752  1.00  0.00     0.094 C 
ATOM     34  C   UNL     1      -4.915  -1.099 -26.739  1.00  0.00     0.016 C 
BRANCH  34  35
ATOM     35  C   UNL     1      -4.320  -0.988 -28.078  1.00  0.00    -0.021 A 
ATOM     36  C   UNL     1      -4.337   0.258 -28.724  1.00  0.00     0.058 A 
ATOM     37  C   UNL     1      -3.785  -2.103 -28.747  1.00  0.00     0.012 A 
ATOM     38  C   UNL     1      -3.799   0.378 -30.002  1.00  0.00     0.157 A 
ATOM     39  C   UNL     1      -3.250  -1.973 -30.031  1.00  0.00     0.051 A 
ATOM     40  C   UNL     1      -3.259  -0.732 -30.646  1.00  0.00     0.157 A 
BRANCH  38  41
ATOM     41  O   UNL     1      -3.780   1.570 -30.671  1.00  0.00    -0.504 OA
ATOM     42  H   UNL     1      -4.696   1.816 -30.886  1.00  0.00     0.293 HD
ENDBRANCH  38  41
BRANCH  40  43
ATOM     43  O   UNL     1      -2.736  -0.606 -31.900  1.00  0.00    -0.504 OA
ATOM     44  H   UNL     1      -1.843  -0.230 -31.758  1.00  0.00     0.293 HD
ENDBRANCH  40  43
ENDBRANCH  34  35
ENDBRANCH  31  33
ENDBRANCH  30  31
ENDBRANCH   4  30
TORSDOF 16
ENDMDL
MODEL 9
REMARK VINA RESULT:      -8.0      3.125      4.027
REMARK SMILES O=C(/C=C/c1ccc(O)c(O)c1)O[C@@H]1[C@H](O)C[C@@](O)(C(=O)O)C[C@H]1OC(=O)/C=C/c1ccc(O)c(O)c1
REMARK SMILES IDX 17 1 15 2 14 3 24 4 23 5 18 6 16 7 19 9 20 11 21 12 22 13
REMARK SMILES IDX 13 15 2 16 1 17 3 18 4 19 5 20 12 21 6 22 10 23 7 24 8 25
REMARK SMILES IDX 11 26 9 28 25 30 26 31 27 32 28 33 29 34 30 35 37 36 31 37
REMARK SMILES IDX 35 38 32 39 33 40 36 41 34 43
REMARK H PARENT 16 8 19 10 22 14 11 27 9 29 36 42 34 44
ROOT
ATOM      1  C   UNL     1     -10.923  -5.024 -25.002  1.00  0.00     0.083 C 
ATOM      2  C   UNL     1     -11.265  -5.016 -26.489  1.00  0.00     0.162 C 
ATOM      3  C   UNL     1     -10.153  -4.345 -27.314  1.00  0.00     0.246 C 
ATOM      4  C   UNL     1      -9.880  -2.911 -26.817  1.00  0.00     0.223 C 
ATOM      5  C   UNL     1      -9.566  -2.901 -25.317  1.00  0.00     0.097 C 
ATOM      6  C   UNL     1     -10.642  -3.604 -24.489  1.00  0.00     0.168 C 
ENDROOT
BRANCH   2   7
ATOM      7  O   UNL     1     -12.497  -4.293 -26.643  1.00  0.00    -0.389 OA
ATOM      8  H   UNL     1     -13.187  -4.826 -26.199  1.00  0.00     0.211 HD
ENDBRANCH   2   7
BRANCH   6   9
ATOM      9  O   UNL     1     -11.844  -2.806 -24.517  1.00  0.00    -0.378 OA
ATOM     10  H   UNL     1     -11.592  -1.893 -24.242  1.00  0.00     0.212 HD
ENDBRANCH   6   9
BRANCH   6  11
ATOM     11  C   UNL     1     -10.191  -3.680 -23.023  1.00  0.00     0.335 C 
ATOM     12  O   UNL     1      -9.291  -4.389 -22.600  1.00  0.00    -0.249 OA
BRANCH  11  13
ATOM     13  O   UNL     1     -10.917  -2.846 -22.235  1.00  0.00    -0.479 OA
ATOM     14  H   UNL     1     -10.796  -3.155 -21.304  1.00  0.00     0.296 HD
ENDBRANCH  11  13
ENDBRANCH   6  11
BRANCH   3  15
ATOM     15  O   UNL     1     -10.576  -4.277 -28.695  1.00  0.00    -0.452 OA
BRANCH  15  16
ATOM     16  C   UNL     1      -9.679  -4.714 -29.610  1.00  0.00     0.331 C 
ATOM     17  O   UNL     1      -9.391  -5.875 -29.838  1.00  0.00    -0.247 OA
BRANCH  16  18
ATOM     18  C   UNL     1      -9.114  -3.533 -30.292  1.00  0.00     0.094 C 
ATOM     19  C   UNL     1      -9.926  -2.541 -30.689  1.00  0.00     0.016 C 
BRANCH  19  20
ATOM     20  C   UNL     1      -9.464  -1.323 -31.370  1.00  0.00    -0.021 A 
ATOM     21  C   UNL     1     -10.423  -0.421 -31.858  1.00  0.00     0.058 A 
ATOM     22  C   UNL     1      -8.101  -1.062 -31.596  1.00  0.00     0.012 A 
ATOM     23  C   UNL     1     -10.013   0.727 -32.530  1.00  0.00     0.157 A 
ATOM     24  C   UNL     1      -7.698   0.094 -32.272  1.00  0.00     0.051 A 
ATOM     25  C   UNL     1      -8.659   0.980 -32.731  1.00  0.00     0.157 A 
BRANCH  23  26
ATOM     26  O   UNL     1     -10.908   1.641 -33.015  1.00  0.00    -0.504 OA
ATOM     27  H   UNL     1     -10.410   2.395 -33.375  1.00  0.00     0.293 HD
ENDBRANCH  23  26
BRANCH  25  28
ATOM     28  O   UNL     1      -8.266   2.107 -33.391  1.00  0.00    -0.504 OA
ATOM     29  H   UNL     1      -7.415   1.865 -33.807  1.00  0.00     0.293 HD
ENDBRANCH  25  28
ENDBRANCH  19  20
ENDBRANCH  16  18
ENDBRANCH  15  16
ENDBRANCH   3  15
BRANCH   4  30
ATOM     30  O   UNL     1      -8.710  -2.385 -27.488  1.00  0.00    -0.455 OA
BRANCH  30  31
ATOM     31  C   UNL     1      -8.585  -1.037 -27.533  1.00  0.00     0.331 C 
ATOM     32  O   UNL     1      -9.400  -0.220 -27.129  1.00  0.00    -0.247 OA
BRANCH  31  33
ATOM     33  C   UNL     1      -7.310  -0.625 -28.155  1.00  0.00     0.094 C 
ATOM     34  C   UNL     1      -6.110  -1.132 -27.833  1.00  0.00     0.016 C 
BRANCH  34  35
ATOM     35  C   UNL     1      -4.860  -0.715 -28.483  1.00  0.00    -0.021 A 
ATOM     36  C   UNL     1      -4.739  -0.862 -29.874  1.00  0.00     0.058 A 
ATOM     37  C   UNL     1      -3.768  -0.224 -27.745  1.00  0.00     0.012 A 
ATOM     38  C   UNL     1      -3.554  -0.493 -30.504  1.00  0.00     0.157 A 
ATOM     39  C   UNL     1      -2.582   0.141 -28.387  1.00  0.00     0.051 A 
ATOM     40  C   UNL     1      -2.487   0.006 -29.762  1.00  0.00     0.157 A 
BRANCH  38  41
ATOM     41  O   UNL     1      -3.389  -0.605 -31.857  1.00  0.00    -0.504 OA
ATOM     42  H   UNL     1      -3.828  -1.421 -32.153  1.00  0.00     0.293 HD
ENDBRANCH  38  41
BRANCH  40  43
ATOM     43  O   UNL     1      -1.328   0.363 -30.388  1.00  0.00    -0.504 OA
ATOM     44  H   UNL     1      -1.477   0.136 -31.329  1.00  0.00     0.293 HD
ENDBRANCH  40  43
ENDBRANCH  34  35
ENDBRANCH  31  33
ENDBRANCH  30  31
ENDBRANCH   4  30
TORSDOF 16
ENDMDL
MODEL 10
REMARK VINA RESULT:      -8.0      2.268      9.329
REMARK SMILES O=C(/C=C/c1ccc(O)c(O)c1)O[C@@H]1[C@H](O)C[C@@](O)(C(=O)O)C[C@H]1OC(=O)/C=C/c1ccc(O)c(O)c1
REMARK SMILES IDX 17 1 15 2 14 3 24 4 23 5 18 6 16 7 19 9 20 11 21 12 22 13
REMARK SMILES IDX 13 15 2 16 1 17 3 18 4 19 5 20 12 21 6 22 10 23 7 24 8 25
REMARK SMILES IDX 11 26 9 28 25 30 26 31 27 32 28 33 29 34 30 35 37 36 31 37
REMARK SMILES IDX 35 38 32 39 33 40 36 41 34 43
REMARK H PARENT 16 8 19 10 22 14 11 27 9 29 36 42 34 44
ROOT
ATOM      1  C   UNL     1      -3.468  -0.544 -28.963  1.00  0.00     0.083 C 
ATOM      2  C   UNL     1      -4.028  -0.336 -27.558  1.00  0.00     0.162 C 
ATOM      3  C   UNL     1      -5.564  -0.402 -27.553  1.00  0.00     0.246 C 
ATOM      4  C   UNL     1      -6.168   0.627 -28.530  1.00  0.00     0.223 C 
ATOM      5  C   UNL     1      -5.592   0.450 -29.939  1.00  0.00     0.097 C 
ATOM      6  C   UNL     1      -4.063   0.469 -29.952  1.00  0.00     0.168 C 
ENDROOT
BRANCH   2   7
ATOM      7  O   UNL     1      -3.589   0.956 -27.107  1.00  0.00    -0.389 OA
ATOM      8  H   UNL     1      -2.644   1.028 -27.354  1.00  0.00     0.211 HD
ENDBRANCH   2   7
BRANCH   6   9
ATOM      9  O   UNL     1      -3.613   1.805 -29.644  1.00  0.00    -0.378 OA
ATOM     10  H   UNL     1      -4.366   2.271 -29.207  1.00  0.00     0.212 HD
ENDBRANCH   6   9
BRANCH   6  11
ATOM     11  C   UNL     1      -3.559   0.144 -31.366  1.00  0.00     0.335 C 
ATOM     12  O   UNL     1      -3.035  -0.907 -31.701  1.00  0.00    -0.249 OA
BRANCH  11  13
ATOM     13  O   UNL     1      -3.776   1.176 -32.221  1.00  0.00    -0.479 OA
ATOM     14  H   UNL     1      -3.071   1.847 -32.044  1.00  0.00     0.296 HD
ENDBRANCH  11  13
ENDBRANCH   6  11
BRANCH   3  15
ATOM     15  O   UNL     1      -6.038  -0.100 -26.221  1.00  0.00    -0.452 OA
BRANCH  15  16
ATOM     16  C   UNL     1      -6.014  -1.125 -25.338  1.00  0.00     0.331 C 
ATOM     17  O   UNL     1      -5.285  -2.100 -25.387  1.00  0.00    -0.247 OA
BRANCH  16  18
ATOM     18  C   UNL     1      -7.023  -0.852 -24.297  1.00  0.00     0.094 C 
ATOM     19  C   UNL     1      -7.313  -1.795 -23.387  1.00  0.00     0.016 C 
BRANCH  19  20
ATOM     20  C   UNL     1      -8.297  -1.621 -22.308  1.00  0.00    -0.021 A 
ATOM     21  C   UNL     1      -8.554  -2.706 -21.453  1.00  0.00     0.058 A 
ATOM     22  C   UNL     1      -9.023  -0.430 -22.140  1.00  0.00     0.012 A 
ATOM     23  C   UNL     1      -9.499  -2.577 -20.439  1.00  0.00     0.157 A 
ATOM     24  C   UNL     1      -9.970  -0.309 -21.119  1.00  0.00     0.051 A 
ATOM     25  C   UNL     1     -10.198  -1.385 -20.276  1.00  0.00     0.157 A 
BRANCH  23  26
ATOM     26  O   UNL     1      -9.779  -3.600 -19.575  1.00  0.00    -0.504 OA
ATOM     27  H   UNL     1      -9.375  -4.413 -19.924  1.00  0.00     0.293 HD
ENDBRANCH  23  26
BRANCH  25  28
ATOM     28  O   UNL     1     -11.124  -1.267 -19.280  1.00  0.00    -0.504 OA
ATOM     29  H   UNL     1     -11.765  -1.984 -19.453  1.00  0.00     0.293 HD
ENDBRANCH  25  28
ENDBRANCH  19  20
ENDBRANCH  16  18
ENDBRANCH  15  16
ENDBRANCH   3  15
BRANCH   4  30
ATOM     30  O   UNL     1      -7.595   0.408 -28.637  1.00  0.00    -0.455 OA
BRANCH  30  31
ATOM     31  C   UNL     1      -7.997  -0.827 -29.022  1.00  0.00     0.331 C 
ATOM     32  O   UNL     1      -7.602  -1.446 -29.999  1.00  0.00    -0.247 OA
BRANCH  31  33
ATOM     33  C   UNL     1      -9.015  -1.383 -28.107  1.00  0.00     0.094 C 
ATOM     34  C   UNL     1      -9.144  -2.687 -27.817  1.00  0.00     0.016 C 
BRANCH  34  35
ATOM     35  C   UNL     1     -10.156  -3.208 -26.887  1.00  0.00    -0.021 A 
ATOM     36  C   UNL     1     -10.417  -2.499 -25.705  1.00  0.00     0.058 A 
ATOM     37  C   UNL     1     -10.828  -4.420 -27.126  1.00  0.00     0.012 A 
ATOM     38  C   UNL     1     -11.355  -2.989 -24.801  1.00  0.00     0.157 A 
ATOM     39  C   UNL     1     -11.767  -4.905 -26.212  1.00  0.00     0.051 A 
ATOM     40  C   UNL     1     -12.024  -4.182 -25.058  1.00  0.00     0.157 A 
BRANCH  38  41
ATOM     41  O   UNL     1     -11.655  -2.331 -23.640  1.00  0.00    -0.504 OA
ATOM     42  H   UNL     1     -12.351  -2.828 -23.177  1.00  0.00     0.293 HD
ENDBRANCH  38  41
BRANCH  40  43
ATOM     43  O   UNL     1     -12.942  -4.656 -24.166  1.00  0.00    -0.504 OA
ATOM     44  H   UNL     1     -12.854  -4.070 -23.388  1.00  0.00     0.293 HD
ENDBRANCH  40  43
ENDBRANCH  34  35
ENDBRANCH  31  33
ENDBRANCH  30  31
ENDBRANCH   4  30
TORSDOF 16
ENDMDL
