MODEL 1
REMARK VINA RESULT:      -5.5      0.000      0.000
REMARK SMILES C=CCc1ccc(OC)c(OC)c1
REMARK SMILES IDX 7 1 10 2 13 3 4 4 5 5 6 6 8 7 9 8 11 9 12 10 3 11 2 12 1 13
REMARK H PARENT
ROOT
ATOM      1  C   UNL     1      -5.964  -2.182 -28.214  1.00  0.00     0.160 A 
ATOM      2  C   UNL     1      -5.282  -1.647 -27.106  1.00  0.00     0.160 A 
ATOM      3  C   UNL     1      -4.087  -0.945 -27.324  1.00  0.00     0.054 A 
ATOM      4  C   UNL     1      -3.552  -0.794 -28.617  1.00  0.00    -0.040 A 
ATOM      5  C   UNL     1      -4.220  -1.370 -29.699  1.00  0.00     0.008 A 
ATOM      6  C   UNL     1      -5.414  -2.060 -29.496  1.00  0.00     0.051 A 
ENDROOT
BRANCH   1   7
ATOM      7  O   UNL     1      -7.133  -2.900 -28.186  1.00  0.00    -0.493 OA
ATOM      8  C   UNL     1      -7.666  -3.264 -29.454  1.00  0.00     0.278 C 
ENDBRANCH   1   7
BRANCH   2   9
ATOM      9  O   UNL     1      -5.820  -1.860 -25.864  1.00  0.00    -0.493 OA
ATOM     10  C   UNL     1      -5.712  -0.815 -24.906  1.00  0.00     0.278 C 
ENDBRANCH   2   9
BRANCH   4  11
ATOM     11  C   UNL     1      -2.253  -0.051 -28.821  1.00  0.00     0.062 C 
BRANCH  11  12
ATOM     12  C   UNL     1      -2.151   1.170 -27.950  1.00  0.00    -0.030 C 
ATOM     13  C   UNL     1      -2.829   2.306 -28.158  1.00  0.00     0.004 C 
ENDBRANCH  11  12
ENDBRANCH   4  11
TORSDOF 4
ENDMDL
MODEL 2
REMARK VINA RESULT:      -5.5      1.352      2.742
REMARK SMILES C=CCc1ccc(OC)c(OC)c1
REMARK SMILES IDX 7 1 10 2 13 3 4 4 5 5 6 6 8 7 9 8 11 9 12 10 3 11 2 12 1 13
REMARK H PARENT
ROOT
ATOM      1  C   UNL     1      -6.127  -2.171 -28.531  1.00  0.00     0.160 A 
ATOM      2  C   UNL     1      -5.758  -1.655 -29.786  1.00  0.00     0.160 A 
ATOM      3  C   UNL     1      -4.508  -1.032 -29.917  1.00  0.00     0.054 A 
ATOM      4  C   UNL     1      -3.640  -0.892 -28.819  1.00  0.00    -0.040 A 
ATOM      5  C   UNL     1      -4.042  -1.373 -27.571  1.00  0.00     0.008 A 
ATOM      6  C   UNL     1      -5.278  -2.004 -27.431  1.00  0.00     0.051 A 
ENDROOT
BRANCH   1   7
ATOM      7  O   UNL     1      -7.307  -2.800 -28.220  1.00  0.00    -0.493 OA
ATOM      8  C   UNL     1      -8.359  -1.955 -27.770  1.00  0.00     0.278 C 
ENDBRANCH   1   7
BRANCH   2   9
ATOM      9  O   UNL     1      -6.656  -1.775 -30.813  1.00  0.00    -0.493 OA
ATOM     10  C   UNL     1      -7.196  -0.583 -31.367  1.00  0.00     0.278 C 
ENDBRANCH   2   9
BRANCH   4  11
ATOM     11  C   UNL     1      -2.308  -0.199 -28.983  1.00  0.00     0.062 C 
BRANCH  11  12
ATOM     12  C   UNL     1      -2.145   0.955 -28.034  1.00  0.00    -0.030 C 
ATOM     13  C   UNL     1      -2.856   2.090 -28.093  1.00  0.00     0.004 C 
ENDBRANCH  11  12
ENDBRANCH   4  11
TORSDOF 4
ENDMDL
MODEL 3
REMARK VINA RESULT:      -5.5      2.232      5.464
REMARK SMILES C=CCc1ccc(OC)c(OC)c1
REMARK SMILES IDX 7 1 10 2 13 3 4 4 5 5 6 6 8 7 9 8 11 9 12 10 3 11 2 12 1 13
REMARK H PARENT
ROOT
ATOM      1  C   UNL     1      -3.542  -0.966 -28.925  1.00  0.00     0.160 A 
ATOM      2  C   UNL     1      -4.316  -1.100 -30.090  1.00  0.00     0.160 A 
ATOM      3  C   UNL     1      -5.582  -1.698 -29.994  1.00  0.00     0.054 A 
ATOM      4  C   UNL     1      -6.070  -2.186 -28.768  1.00  0.00    -0.040 A 
ATOM      5  C   UNL     1      -5.269  -2.083 -27.629  1.00  0.00     0.008 A 
ATOM      6  C   UNL     1      -4.014  -1.480 -27.711  1.00  0.00     0.051 A 
ENDROOT
BRANCH   1   7
ATOM      7  O   UNL     1      -2.287  -0.418 -28.834  1.00  0.00    -0.493 OA
ATOM      8  C   UNL     1      -2.198   0.815 -28.131  1.00  0.00     0.278 C 
ENDBRANCH   1   7
BRANCH   2   9
ATOM      9  O   UNL     1      -3.778  -0.651 -31.267  1.00  0.00    -0.493 OA
ATOM     10  C   UNL     1      -4.118   0.660 -31.696  1.00  0.00     0.278 C 
ENDBRANCH   2   9
BRANCH   4  11
ATOM     11  C   UNL     1      -7.428  -2.844 -28.697  1.00  0.00     0.062 C 
BRANCH  11  12
ATOM     12  C   UNL     1      -7.853  -3.419 -30.019  1.00  0.00    -0.030 C 
ATOM     13  C   UNL     1      -8.670  -4.472 -30.159  1.00  0.00     0.004 C 
ENDBRANCH  11  12
ENDBRANCH   4  11
TORSDOF 4
ENDMDL
MODEL 4
REMARK VINA RESULT:      -5.4      2.529      3.717
REMARK SMILES C=CCc1ccc(OC)c(OC)c1
REMARK SMILES IDX 7 1 10 2 13 3 4 4 5 5 6 6 8 7 9 8 11 9 12 10 3 11 2 12 1 13
REMARK H PARENT
ROOT
ATOM      1  C   UNL     1      -6.638  -0.312 -31.395  1.00  0.00     0.160 A 
ATOM      2  C   UNL     1      -6.683  -1.371 -30.472  1.00  0.00     0.160 A 
ATOM      3  C   UNL     1      -5.554  -1.621 -29.676  1.00  0.00     0.054 A 
ATOM      4  C   UNL     1      -4.382  -0.854 -29.806  1.00  0.00    -0.040 A 
ATOM      5  C   UNL     1      -4.341   0.166 -30.759  1.00  0.00     0.008 A 
ATOM      6  C   UNL     1      -5.461   0.431 -31.547  1.00  0.00     0.051 A 
ENDROOT
BRANCH   1   7
ATOM      7  O   UNL     1      -7.638   0.068 -32.254  1.00  0.00    -0.493 OA
ATOM      8  C   UNL     1      -7.367   1.214 -33.052  1.00  0.00     0.278 C 
ENDBRANCH   1   7
BRANCH   2   9
ATOM      9  O   UNL     1      -7.830  -2.118 -30.415  1.00  0.00    -0.493 OA
ATOM     10  C   UNL     1      -7.718  -3.480 -30.025  1.00  0.00     0.278 C 
ENDBRANCH   2   9
BRANCH   4  11
ATOM     11  C   UNL     1      -3.174  -1.158 -28.952  1.00  0.00     0.062 C 
BRANCH  11  12
ATOM     12  C   UNL     1      -2.193  -0.020 -28.926  1.00  0.00    -0.030 C 
ATOM     13  C   UNL     1      -2.086   0.866 -27.927  1.00  0.00     0.004 C 
ENDBRANCH  11  12
ENDBRANCH   4  11
TORSDOF 4
ENDMDL
MODEL 5
REMARK VINA RESULT:      -5.3      4.026      5.340
REMARK SMILES C=CCc1ccc(OC)c(OC)c1
REMARK SMILES IDX 7 1 10 2 13 3 4 4 5 5 6 6 8 7 9 8 11 9 12 10 3 11 2 12 1 13
REMARK H PARENT
ROOT
ATOM      1  C   UNL     1      -8.165   0.348 -32.826  1.00  0.00     0.160 A 
ATOM      2  C   UNL     1      -8.062  -0.711 -31.906  1.00  0.00     0.160 A 
ATOM      3  C   UNL     1      -6.937  -0.770 -31.070  1.00  0.00     0.054 A 
ATOM      4  C   UNL     1      -5.908   0.185 -31.156  1.00  0.00    -0.040 A 
ATOM      5  C   UNL     1      -6.007   1.204 -32.105  1.00  0.00     0.008 A 
ATOM      6  C   UNL     1      -7.126   1.280 -32.935  1.00  0.00     0.051 A 
ENDROOT
BRANCH   1   7
ATOM      7  O   UNL     1      -9.183   0.558 -33.721  1.00  0.00    -0.493 OA
ATOM      8  C   UNL     1     -10.158   1.519 -33.336  1.00  0.00     0.278 C 
ENDBRANCH   1   7
BRANCH   2   9
ATOM      9  O   UNL     1      -9.067  -1.641 -31.891  1.00  0.00    -0.493 OA
ATOM     10  C   UNL     1      -8.940  -2.743 -31.002  1.00  0.00     0.278 C 
ENDBRANCH   2   9
BRANCH   4  11
ATOM     11  C   UNL     1      -4.698   0.086 -30.257  1.00  0.00     0.062 C 
BRANCH  11  12
ATOM     12  C   UNL     1      -4.277  -1.338 -30.025  1.00  0.00    -0.030 C 
ATOM     13  C   UNL     1      -3.440  -1.731 -29.055  1.00  0.00     0.004 C 
ENDBRANCH  11  12
ENDBRANCH   4  11
TORSDOF 4
ENDMDL
MODEL 6
REMARK VINA RESULT:      -5.2      4.142      6.015
REMARK SMILES C=CCc1ccc(OC)c(OC)c1
REMARK SMILES IDX 7 1 10 2 13 3 4 4 5 5 6 6 8 7 9 8 11 9 12 10 3 11 2 12 1 13
REMARK H PARENT
ROOT
ATOM      1  C   UNL     1      -5.648   0.780 -29.573  1.00  0.00     0.160 A 
ATOM      2  C   UNL     1      -5.460   0.122 -30.800  1.00  0.00     0.160 A 
ATOM      3  C   UNL     1      -6.285   0.465 -31.882  1.00  0.00     0.054 A 
ATOM      4  C   UNL     1      -7.303   1.427 -31.751  1.00  0.00    -0.040 A 
ATOM      5  C   UNL     1      -7.502   2.038 -30.512  1.00  0.00     0.008 A 
ATOM      6  C   UNL     1      -6.682   1.713 -29.432  1.00  0.00     0.051 A 
ENDROOT
BRANCH   1   7
ATOM      7  O   UNL     1      -4.944   0.567 -28.414  1.00  0.00    -0.493 OA
ATOM      8  C   UNL     1      -3.880   1.476 -28.159  1.00  0.00     0.278 C 
ENDBRANCH   1   7
BRANCH   2   9
ATOM      9  O   UNL     1      -4.486  -0.839 -30.865  1.00  0.00    -0.493 OA
ATOM     10  C   UNL     1      -3.178  -0.435 -31.247  1.00  0.00     0.278 C 
ENDBRANCH   2   9
BRANCH   4  11
ATOM     11  C   UNL     1      -8.190   1.762 -32.927  1.00  0.00     0.062 C 
BRANCH  11  12
ATOM     12  C   UNL     1      -8.692   0.533 -33.632  1.00  0.00    -0.030 C 
ATOM     13  C   UNL     1      -9.983   0.191 -33.729  1.00  0.00     0.004 C 
ENDBRANCH  11  12
ENDBRANCH   4  11
TORSDOF 4
ENDMDL
MODEL 7
REMARK VINA RESULT:      -5.2      9.374     10.734
REMARK SMILES C=CCc1ccc(OC)c(OC)c1
REMARK SMILES IDX 7 1 10 2 13 3 4 4 5 5 6 6 8 7 9 8 11 9 12 10 3 11 2 12 1 13
REMARK H PARENT
ROOT
ATOM      1  C   UNL     1      -0.547  -9.901 -26.835  1.00  0.00     0.160 A 
ATOM      2  C   UNL     1      -1.271 -10.922 -27.475  1.00  0.00     0.160 A 
ATOM      3  C   UNL     1      -2.627 -10.708 -27.763  1.00  0.00     0.054 A 
ATOM      4  C   UNL     1      -3.273  -9.512 -27.401  1.00  0.00    -0.040 A 
ATOM      5  C   UNL     1      -2.548  -8.527 -26.727  1.00  0.00     0.008 A 
ATOM      6  C   UNL     1      -1.197  -8.724 -26.445  1.00  0.00     0.051 A 
ENDROOT
BRANCH   1   7
ATOM      7  O   UNL     1       0.776  -9.940 -26.471  1.00  0.00    -0.493 OA
ATOM      8  C   UNL     1       1.039 -10.356 -25.137  1.00  0.00     0.278 C 
ENDBRANCH   1   7
BRANCH   2   9
ATOM      9  O   UNL     1      -0.609 -12.085 -27.767  1.00  0.00    -0.493 OA
ATOM     10  C   UNL     1      -0.407 -13.017 -26.713  1.00  0.00     0.278 C 
ENDBRANCH   2   9
BRANCH   4  11
ATOM     11  C   UNL     1      -4.740  -9.315 -27.705  1.00  0.00     0.062 C 
BRANCH  11  12
ATOM     12  C   UNL     1      -5.624  -9.828 -26.603  1.00  0.00    -0.030 C 
ATOM     13  C   UNL     1      -5.670 -11.106 -26.202  1.00  0.00     0.004 C 
ENDBRANCH  11  12
ENDBRANCH   4  11
TORSDOF 4
ENDMDL
MODEL 8
REMARK VINA RESULT:      -5.2      2.596      3.616
REMARK SMILES C=CCc1ccc(OC)c(OC)c1
REMARK SMILES IDX 7 1 10 2 13 3 4 4 5 5 6 6 8 7 9 8 11 9 12 10 3 11 2 12 1 13
REMARK H PARENT
ROOT
ATOM      1  C   UNL     1      -7.004  -1.130 -30.771  1.00  0.00     0.160 A 
ATOM      2  C   UNL     1      -6.040  -0.178 -31.147  1.00  0.00     0.160 A 
ATOM      3  C   UNL     1      -4.772  -0.231 -30.550  1.00  0.00     0.054 A 
ATOM      4  C   UNL     1      -4.463  -1.193 -29.571  1.00  0.00    -0.040 A 
ATOM      5  C   UNL     1      -5.447  -2.102 -29.178  1.00  0.00     0.008 A 
ATOM      6  C   UNL     1      -6.708  -2.066 -29.773  1.00  0.00     0.051 A 
ENDROOT
BRANCH   1   7
ATOM      7  O   UNL     1      -8.290  -1.222 -31.242  1.00  0.00    -0.493 OA
ATOM      8  C   UNL     1      -8.895  -2.505 -31.143  1.00  0.00     0.278 C 
ENDBRANCH   1   7
BRANCH   2   9
ATOM      9  O   UNL     1      -6.404   0.766 -32.071  1.00  0.00    -0.493 OA
ATOM     10  C   UNL     1      -6.880   2.016 -31.591  1.00  0.00     0.278 C 
ENDBRANCH   2   9
BRANCH   4  11
ATOM     11  C   UNL     1      -3.096  -1.214 -28.928  1.00  0.00     0.062 C 
BRANCH  11  12
ATOM     12  C   UNL     1      -2.641   0.156 -28.509  1.00  0.00    -0.030 C 
ATOM     13  C   UNL     1      -3.046   0.780 -27.395  1.00  0.00     0.004 C 
ENDBRANCH  11  12
ENDBRANCH   4  11
TORSDOF 4
ENDMDL
MODEL 9
REMARK VINA RESULT:      -5.2      3.944      5.819
REMARK SMILES C=CCc1ccc(OC)c(OC)c1
REMARK SMILES IDX 7 1 10 2 13 3 4 4 5 5 6 6 8 7 9 8 11 9 12 10 3 11 2 12 1 13
REMARK H PARENT
ROOT
ATOM      1  C   UNL     1      -5.178   0.576 -30.021  1.00  0.00     0.160 A 
ATOM      2  C   UNL     1      -5.892  -0.432 -30.692  1.00  0.00     0.160 A 
ATOM      3  C   UNL     1      -6.872  -0.058 -31.623  1.00  0.00     0.054 A 
ATOM      4  C   UNL     1      -7.167   1.295 -31.873  1.00  0.00    -0.040 A 
ATOM      5  C   UNL     1      -6.478   2.281 -31.165  1.00  0.00     0.008 A 
ATOM      6  C   UNL     1      -5.494   1.921 -30.244  1.00  0.00     0.051 A 
ENDROOT
BRANCH   1   7
ATOM      7  O   UNL     1      -4.198   0.395 -29.077  1.00  0.00    -0.493 OA
ATOM      8  C   UNL     1      -2.861   0.410 -29.562  1.00  0.00     0.278 C 
ENDBRANCH   1   7
BRANCH   2   9
ATOM      9  O   UNL     1      -5.599  -1.734 -30.381  1.00  0.00    -0.493 OA
ATOM     10  C   UNL     1      -6.541  -2.458 -29.601  1.00  0.00     0.278 C 
ENDBRANCH   2   9
BRANCH   4  11
ATOM     11  C   UNL     1      -8.242   1.670 -32.866  1.00  0.00     0.062 C 
BRANCH  11  12
ATOM     12  C   UNL     1      -8.765   0.477 -33.617  1.00  0.00    -0.030 C 
ATOM     13  C   UNL     1     -10.060   0.142 -33.697  1.00  0.00     0.004 C 
ENDBRANCH  11  12
ENDBRANCH   4  11
TORSDOF 4
ENDMDL
MODEL 10
REMARK VINA RESULT:      -5.1      3.602      5.325
REMARK SMILES C=CCc1ccc(OC)c(OC)c1
REMARK SMILES IDX 7 1 10 2 13 3 4 4 5 5 6 6 8 7 9 8 11 9 12 10 3 11 2 12 1 13
REMARK H PARENT
ROOT
ATOM      1  C   UNL     1      -5.836  -1.287 -29.923  1.00  0.00     0.160 A 
ATOM      2  C   UNL     1      -5.177  -0.192 -30.509  1.00  0.00     0.160 A 
ATOM      3  C   UNL     1      -5.835   0.531 -31.515  1.00  0.00     0.054 A 
ATOM      4  C   UNL     1      -7.118   0.163 -31.962  1.00  0.00    -0.040 A 
ATOM      5  C   UNL     1      -7.738  -0.954 -31.399  1.00  0.00     0.008 A 
ATOM      6  C   UNL     1      -7.098  -1.673 -30.390  1.00  0.00     0.051 A 
ENDROOT
BRANCH   1   7
ATOM      7  O   UNL     1      -5.343  -2.107 -28.939  1.00  0.00    -0.493 OA
ATOM      8  C   UNL     1      -5.638  -1.717 -27.603  1.00  0.00     0.278 C 
ENDBRANCH   1   7
BRANCH   2   9
ATOM      9  O   UNL     1      -3.912   0.099 -30.071  1.00  0.00    -0.493 OA
ATOM     10  C   UNL     1      -3.744   1.232 -29.231  1.00  0.00     0.278 C 
ENDBRANCH   2   9
BRANCH   4  11
ATOM     11  C   UNL     1      -7.795   0.946 -33.062  1.00  0.00     0.062 C 
BRANCH  11  12
ATOM     12  C   UNL     1      -8.852   0.143 -33.766  1.00  0.00    -0.030 C 
ATOM     13  C   UNL     1     -10.157   0.445 -33.767  1.00  0.00     0.004 C 
ENDBRANCH  11  12
ENDBRANCH   4  11
TORSDOF 4
ENDMDL
