MODEL 1
REMARK VINA RESULT:      -3.1      0.000      0.000
REMARK SMILES [2H]C(Br)(Br)Br
REMARK SMILES IDX 2 1 3 2 4 3 5 4
REMARK H PARENT
ROOT
ATOM      1  C   UNL     1       6.568  -1.313 -18.696  1.00  0.00     0.191 C 
ATOM      2  Br  UNL     1       6.063  -1.918 -16.905  1.00  0.00    -0.064 Br
ATOM      3  Br  UNL     1       6.484  -2.790 -19.978  1.00  0.00    -0.064 Br
ATOM      4  Br  UNL     1       8.352  -0.510 -18.681  1.00  0.00    -0.064 Br
ENDROOT
TORSDOF 0
ENDMDL
MODEL 2
REMARK VINA RESULT:      -3.1      0.017      2.796
REMARK SMILES [2H]C(Br)(Br)Br
REMARK SMILES IDX 2 1 3 2 4 3 5 4
REMARK H PARENT
ROOT
ATOM      1  C   UNL     1       6.561  -1.316 -18.688  1.00  0.00     0.191 C 
ATOM      2  Br  UNL     1       8.346  -0.512 -18.688  1.00  0.00    -0.064 Br
ATOM      3  Br  UNL     1       6.068  -1.910 -16.890  1.00  0.00    -0.064 Br
ATOM      4  Br  UNL     1       6.469  -2.801 -19.959  1.00  0.00    -0.064 Br
ENDROOT
TORSDOF 0
ENDMDL
MODEL 3
REMARK VINA RESULT:      -3.1      0.038      2.797
REMARK SMILES [2H]C(Br)(Br)Br
REMARK SMILES IDX 2 1 3 2 4 3 5 4
REMARK H PARENT
ROOT
ATOM      1  C   UNL     1       6.581  -1.321 -18.725  1.00  0.00     0.191 C 
ATOM      2  Br  UNL     1       6.496  -2.790 -20.016  1.00  0.00    -0.064 Br
ATOM      3  Br  UNL     1       8.373  -0.536 -18.683  1.00  0.00    -0.064 Br
ATOM      4  Br  UNL     1       6.049  -1.931 -16.943  1.00  0.00    -0.064 Br
ENDROOT
TORSDOF 0
ENDMDL
MODEL 4
REMARK VINA RESULT:      -2.7     13.549     14.941
REMARK SMILES [2H]C(Br)(Br)Br
REMARK SMILES IDX 2 1 3 2 4 3 5 4
REMARK H PARENT
ROOT
ATOM      1  C   UNL     1      -1.685  -9.834 -26.978  1.00  0.00     0.191 C 
ATOM      2  Br  UNL     1      -3.235  -9.153 -27.960  1.00  0.00    -0.064 Br
ATOM      3  Br  UNL     1      -0.184  -8.586 -27.097  1.00  0.00    -0.064 Br
ATOM      4  Br  UNL     1      -1.170 -11.604 -27.635  1.00  0.00    -0.064 Br
ENDROOT
TORSDOF 0
ENDMDL
MODEL 5
REMARK VINA RESULT:      -2.7     13.547     14.883
REMARK SMILES [2H]C(Br)(Br)Br
REMARK SMILES IDX 2 1 3 2 4 3 5 4
REMARK H PARENT
ROOT
ATOM      1  C   UNL     1      -1.679  -9.829 -26.978  1.00  0.00     0.191 C 
ATOM      2  Br  UNL     1      -0.171  -8.588 -27.106  1.00  0.00    -0.064 Br
ATOM      3  Br  UNL     1      -1.181 -11.599 -27.648  1.00  0.00    -0.064 Br
ATOM      4  Br  UNL     1      -3.233  -9.133 -27.943  1.00  0.00    -0.064 Br
ENDROOT
TORSDOF 0
ENDMDL
MODEL 6
REMARK VINA RESULT:      -2.7     13.685     14.650
REMARK SMILES [2H]C(Br)(Br)Br
REMARK SMILES IDX 2 1 3 2 4 3 5 4
REMARK H PARENT
ROOT
ATOM      1  C   UNL     1      -2.718  -0.681 -28.986  1.00  0.00     0.191 C 
ATOM      2  Br  UNL     1      -2.282   0.938 -27.977  1.00  0.00    -0.064 Br
ATOM      3  Br  UNL     1      -3.137  -0.248 -30.847  1.00  0.00    -0.064 Br
ATOM      4  Br  UNL     1      -4.201  -1.644 -28.147  1.00  0.00    -0.064 Br
ENDROOT
TORSDOF 0
ENDMDL
MODEL 7
REMARK VINA RESULT:      -2.7     13.687     14.647
REMARK SMILES [2H]C(Br)(Br)Br
REMARK SMILES IDX 2 1 3 2 4 3 5 4
REMARK H PARENT
ROOT
ATOM      1  C   UNL     1      -2.718  -0.680 -28.985  1.00  0.00     0.191 C 
ATOM      2  Br  UNL     1      -3.137  -0.246 -30.847  1.00  0.00    -0.064 Br
ATOM      3  Br  UNL     1      -4.201  -1.643 -28.146  1.00  0.00    -0.064 Br
ATOM      4  Br  UNL     1      -2.285   0.940 -27.976  1.00  0.00    -0.064 Br
ENDROOT
TORSDOF 0
ENDMDL
MODEL 8
REMARK VINA RESULT:      -2.7     13.688     14.657
REMARK SMILES [2H]C(Br)(Br)Br
REMARK SMILES IDX 2 1 3 2 4 3 5 4
REMARK H PARENT
ROOT
ATOM      1  C   UNL     1      -2.715  -0.680 -28.991  1.00  0.00     0.191 C 
ATOM      2  Br  UNL     1      -4.195  -1.649 -28.153  1.00  0.00    -0.064 Br
ATOM      3  Br  UNL     1      -2.283   0.938 -27.978  1.00  0.00    -0.064 Br
ATOM      4  Br  UNL     1      -3.136  -0.242 -30.851  1.00  0.00    -0.064 Br
ENDROOT
TORSDOF 0
ENDMDL
MODEL 9
REMARK VINA RESULT:      -2.7      1.913      3.673
REMARK SMILES [2H]C(Br)(Br)Br
REMARK SMILES IDX 2 1 3 2 4 3 5 4
REMARK H PARENT
ROOT
ATOM      1  C   UNL     1       7.624  -0.554 -16.922  1.00  0.00     0.191 C 
ATOM      2  Br  UNL     1       8.256  -0.569 -18.774  1.00  0.00    -0.064 Br
ATOM      3  Br  UNL     1       9.082  -0.979 -15.687  1.00  0.00    -0.064 Br
ATOM      4  Br  UNL     1       6.132  -1.798 -16.687  1.00  0.00    -0.064 Br
ENDROOT
TORSDOF 0
ENDMDL
MODEL 10
REMARK VINA RESULT:      -2.7      1.950      2.507
REMARK SMILES [2H]C(Br)(Br)Br
REMARK SMILES IDX 2 1 3 2 4 3 5 4
REMARK H PARENT
ROOT
ATOM      1  C   UNL     1       7.644  -0.527 -16.870  1.00  0.00     0.191 C 
ATOM      2  Br  UNL     1       6.147  -1.770 -16.660  1.00  0.00    -0.064 Br
ATOM      3  Br  UNL     1       8.262  -0.493 -18.727  1.00  0.00    -0.064 Br
ATOM      4  Br  UNL     1       9.109  -0.994 -15.660  1.00  0.00    -0.064 Br
ENDROOT
TORSDOF 0
ENDMDL
