MODEL 1
REMARK VINA RESULT:      -6.2      0.000      0.000
REMARK SMILES C=C(C)c1ccccc1
REMARK SMILES IDX 3 1 2 2 1 3 4 4 5 5 9 6 6 7 8 8 7 9
REMARK H PARENT
ROOT
ATOM      1  C   UNL     1       6.759   1.292 -26.431  1.00  0.00     0.044 C 
ATOM      2  C   UNL     1       5.814   0.199 -26.846  1.00  0.00    -0.051 C 
ATOM      3  C   UNL     1       5.662  -0.145 -28.137  1.00  0.00     0.013 C 
ENDROOT
BRANCH   2   4
ATOM      4  C   UNL     1       5.039  -0.483 -25.784  1.00  0.00    -0.023 A 
ATOM      5  C   UNL     1       3.636  -0.519 -25.825  1.00  0.00     0.008 A 
ATOM      6  C   UNL     1       5.689  -1.137 -24.728  1.00  0.00     0.008 A 
ATOM      7  C   UNL     1       2.906  -1.177 -24.832  1.00  0.00     0.001 A 
ATOM      8  C   UNL     1       4.959  -1.797 -23.734  1.00  0.00     0.001 A 
ATOM      9  C   UNL     1       3.566  -1.816 -23.787  1.00  0.00     0.000 A 
ENDBRANCH   2   4
TORSDOF 1
ENDMDL
MODEL 2
REMARK VINA RESULT:      -6.2      1.346      3.926
REMARK SMILES C=C(C)c1ccccc1
REMARK SMILES IDX 3 1 2 2 1 3 4 4 5 5 9 6 6 7 8 8 7 9
REMARK H PARENT
ROOT
ATOM      1  C   UNL     1       5.831  -1.901 -21.426  1.00  0.00     0.044 C 
ATOM      2  C   UNL     1       4.852  -2.517 -22.387  1.00  0.00    -0.051 C 
ATOM      3  C   UNL     1       4.253  -3.691 -22.121  1.00  0.00     0.013 C 
ENDROOT
BRANCH   2   4
ATOM      4  C   UNL     1       4.575  -1.794 -23.649  1.00  0.00    -0.023 A 
ATOM      5  C   UNL     1       3.259  -1.607 -24.100  1.00  0.00     0.008 A 
ATOM      6  C   UNL     1       5.620  -1.249 -24.409  1.00  0.00     0.008 A 
ATOM      7  C   UNL     1       2.997  -0.909 -25.282  1.00  0.00     0.001 A 
ATOM      8  C   UNL     1       5.359  -0.550 -25.592  1.00  0.00     0.001 A 
ATOM      9  C   UNL     1       4.047  -0.382 -26.028  1.00  0.00     0.000 A 
ENDBRANCH   2   4
TORSDOF 1
ENDMDL
MODEL 3
REMARK VINA RESULT:      -6.1      5.777      7.602
REMARK SMILES C=C(C)c1ccccc1
REMARK SMILES IDX 3 1 2 2 1 3 4 4 5 5 9 6 6 7 8 8 7 9
REMARK H PARENT
ROOT
ATOM      1  C   UNL     1       5.607  -1.807 -21.146  1.00  0.00     0.044 C 
ATOM      2  C   UNL     1       6.737  -2.255 -20.261  1.00  0.00    -0.051 C 
ATOM      3  C   UNL     1       7.503  -3.313 -20.581  1.00  0.00     0.013 C 
ENDROOT
BRANCH   2   4
ATOM      4  C   UNL     1       6.973  -1.500 -19.009  1.00  0.00    -0.023 A 
ATOM      5  C   UNL     1       6.214  -1.758 -17.857  1.00  0.00     0.008 A 
ATOM      6  C   UNL     1       7.983  -0.530 -18.935  1.00  0.00     0.008 A 
ATOM      7  C   UNL     1       6.448  -1.058 -16.670  1.00  0.00     0.001 A 
ATOM      8  C   UNL     1       8.218   0.171 -17.748  1.00  0.00     0.001 A 
ATOM      9  C   UNL     1       7.450  -0.093 -16.616  1.00  0.00     0.000 A 
ENDBRANCH   2   4
TORSDOF 1
ENDMDL
MODEL 4
REMARK VINA RESULT:      -6.1      5.785      7.659
REMARK SMILES C=C(C)c1ccccc1
REMARK SMILES IDX 3 1 2 2 1 3 4 4 5 5 9 6 6 7 8 8 7 9
REMARK H PARENT
ROOT
ATOM      1  C   UNL     1       5.604  -1.831 -21.115  1.00  0.00     0.044 C 
ATOM      2  C   UNL     1       6.750  -2.269 -20.247  1.00  0.00    -0.051 C 
ATOM      3  C   UNL     1       7.532  -3.309 -20.588  1.00  0.00     0.013 C 
ENDROOT
BRANCH   2   4
ATOM      4  C   UNL     1       6.985  -1.526 -18.988  1.00  0.00    -0.023 A 
ATOM      5  C   UNL     1       7.963  -0.521 -18.916  1.00  0.00     0.008 A 
ATOM      6  C   UNL     1       6.214  -1.784 -17.846  1.00  0.00     0.008 A 
ATOM      7  C   UNL     1       8.173   0.193 -17.733  1.00  0.00     0.001 A 
ATOM      8  C   UNL     1       6.424  -1.070 -16.662  1.00  0.00     0.001 A 
ATOM      9  C   UNL     1       7.404  -0.082 -16.606  1.00  0.00     0.000 A 
ENDBRANCH   2   4
TORSDOF 1
ENDMDL
MODEL 5
REMARK VINA RESULT:      -5.4      6.363      8.302
REMARK SMILES C=C(C)c1ccccc1
REMARK SMILES IDX 3 1 2 2 1 3 4 4 5 5 9 6 6 7 8 8 7 9
REMARK H PARENT
ROOT
ATOM      1  C   UNL     1       8.448  -0.705 -15.813  1.00  0.00     0.044 C 
ATOM      2  C   UNL     1       7.579  -0.212 -16.936  1.00  0.00    -0.051 C 
ATOM      3  C   UNL     1       7.283   1.092 -17.076  1.00  0.00     0.013 C 
ENDROOT
BRANCH   2   4
ATOM      4  C   UNL     1       7.043  -1.215 -17.884  1.00  0.00    -0.023 A 
ATOM      5  C   UNL     1       7.205  -1.058 -19.270  1.00  0.00     0.008 A 
ATOM      6  C   UNL     1       6.387  -2.364 -17.419  1.00  0.00     0.008 A 
ATOM      7  C   UNL     1       6.715  -2.014 -20.164  1.00  0.00     0.001 A 
ATOM      8  C   UNL     1       5.895  -3.321 -18.313  1.00  0.00     0.001 A 
ATOM      9  C   UNL     1       6.059  -3.145 -19.686  1.00  0.00     0.000 A 
ENDBRANCH   2   4
TORSDOF 1
ENDMDL
MODEL 6
REMARK VINA RESULT:      -5.4     10.559     11.770
REMARK SMILES C=C(C)c1ccccc1
REMARK SMILES IDX 3 1 2 2 1 3 4 4 5 5 9 6 6 7 8 8 7 9
REMARK H PARENT
ROOT
ATOM      1  C   UNL     1       1.487 -10.728 -24.510  1.00  0.00     0.044 C 
ATOM      2  C   UNL     1       0.644 -11.494 -25.491  1.00  0.00    -0.051 C 
ATOM      3  C   UNL     1       0.784 -12.822 -25.652  1.00  0.00     0.013 C 
ENDROOT
BRANCH   2   4
ATOM      4  C   UNL     1      -0.344 -10.735 -26.292  1.00  0.00    -0.023 A 
ATOM      5  C   UNL     1      -0.999 -11.330 -27.381  1.00  0.00     0.008 A 
ATOM      6  C   UNL     1      -0.672  -9.412 -25.962  1.00  0.00     0.008 A 
ATOM      7  C   UNL     1      -1.944 -10.619 -28.126  1.00  0.00     0.001 A 
ATOM      8  C   UNL     1      -1.618  -8.701 -26.707  1.00  0.00     0.001 A 
ATOM      9  C   UNL     1      -2.253  -9.305 -27.790  1.00  0.00     0.000 A 
ENDBRANCH   2   4
TORSDOF 1
ENDMDL
MODEL 7
REMARK VINA RESULT:      -5.4      7.712      9.463
REMARK SMILES C=C(C)c1ccccc1
REMARK SMILES IDX 3 1 2 2 1 3 4 4 5 5 9 6 6 7 8 8 7 9
REMARK H PARENT
ROOT
ATOM      1  C   UNL     1      10.348  -0.615 -15.448  1.00  0.00     0.044 C 
ATOM      2  C   UNL     1       9.248   0.234 -16.023  1.00  0.00    -0.051 C 
ATOM      3  C   UNL     1       9.142   1.541 -15.725  1.00  0.00     0.013 C 
ENDROOT
BRANCH   2   4
ATOM      4  C   UNL     1       8.271  -0.420 -16.922  1.00  0.00    -0.023 A 
ATOM      5  C   UNL     1       7.147  -1.084 -16.405  1.00  0.00     0.008 A 
ATOM      6  C   UNL     1       8.427  -0.366 -18.315  1.00  0.00     0.008 A 
ATOM      7  C   UNL     1       6.214  -1.686 -17.254  1.00  0.00     0.001 A 
ATOM      8  C   UNL     1       7.494  -0.969 -19.165  1.00  0.00     0.001 A 
ATOM      9  C   UNL     1       6.389  -1.629 -18.634  1.00  0.00     0.000 A 
ENDBRANCH   2   4
TORSDOF 1
ENDMDL
MODEL 8
REMARK VINA RESULT:      -5.4     10.584     11.810
REMARK SMILES C=C(C)c1ccccc1
REMARK SMILES IDX 3 1 2 2 1 3 4 4 5 5 9 6 6 7 8 8 7 9
REMARK H PARENT
ROOT
ATOM      1  C   UNL     1       1.482 -10.732 -24.516  1.00  0.00     0.044 C 
ATOM      2  C   UNL     1       0.635 -11.510 -25.484  1.00  0.00    -0.051 C 
ATOM      3  C   UNL     1       0.786 -12.837 -25.640  1.00  0.00     0.013 C 
ENDROOT
BRANCH   2   4
ATOM      4  C   UNL     1      -0.368 -10.764 -26.277  1.00  0.00    -0.023 A 
ATOM      5  C   UNL     1      -0.696  -9.436 -25.960  1.00  0.00     0.008 A 
ATOM      6  C   UNL     1      -0.993 -11.355 -27.385  1.00  0.00     0.008 A 
ATOM      7  C   UNL     1      -1.630  -8.726 -26.719  1.00  0.00     0.001 A 
ATOM      8  C   UNL     1      -1.927 -10.645 -28.145  1.00  0.00     0.001 A 
ATOM      9  C   UNL     1      -2.246  -9.330 -27.811  1.00  0.00     0.000 A 
ENDBRANCH   2   4
TORSDOF 1
ENDMDL
MODEL 9
REMARK VINA RESULT:      -5.3      7.708      9.395
REMARK SMILES C=C(C)c1ccccc1
REMARK SMILES IDX 3 1 2 2 1 3 4 4 5 5 9 6 6 7 8 8 7 9
REMARK H PARENT
ROOT
ATOM      1  C   UNL     1       9.070   1.667 -15.582  1.00  0.00     0.044 C 
ATOM      2  C   UNL     1       9.389   0.322 -16.175  1.00  0.00    -0.051 C 
ATOM      3  C   UNL     1      10.586  -0.260 -15.990  1.00  0.00     0.013 C 
ENDROOT
BRANCH   2   4
ATOM      4  C   UNL     1       8.342  -0.339 -16.986  1.00  0.00    -0.023 A 
ATOM      5  C   UNL     1       8.431  -0.376 -18.387  1.00  0.00     0.008 A 
ATOM      6  C   UNL     1       7.251  -0.973 -16.374  1.00  0.00     0.008 A 
ATOM      7  C   UNL     1       7.452  -1.016 -19.152  1.00  0.00     0.001 A 
ATOM      8  C   UNL     1       6.271  -1.613 -17.139  1.00  0.00     0.001 A 
ATOM      9  C   UNL     1       6.372  -1.634 -18.529  1.00  0.00     0.000 A 
ENDBRANCH   2   4
TORSDOF 1
ENDMDL
MODEL 10
REMARK VINA RESULT:      -5.3      8.100      9.782
REMARK SMILES C=C(C)c1ccccc1
REMARK SMILES IDX 3 1 2 2 1 3 4 4 5 5 9 6 6 7 8 8 7 9
REMARK H PARENT
ROOT
ATOM      1  C   UNL     1      -4.709   0.211 -24.364  1.00  0.00     0.044 C 
ATOM      2  C   UNL     1      -5.189  -0.381 -25.660  1.00  0.00    -0.051 C 
ATOM      3  C   UNL     1      -6.420  -0.911 -25.777  1.00  0.00     0.013 C 
ENDROOT
BRANCH   2   4
ATOM      4  C   UNL     1      -4.256  -0.375 -26.809  1.00  0.00    -0.023 A 
ATOM      5  C   UNL     1      -3.324   0.662 -26.977  1.00  0.00     0.008 A 
ATOM      6  C   UNL     1      -4.257  -1.423 -27.741  1.00  0.00     0.008 A 
ATOM      7  C   UNL     1      -2.430   0.658 -28.051  1.00  0.00     0.001 A 
ATOM      8  C   UNL     1      -3.363  -1.427 -28.817  1.00  0.00     0.001 A 
ATOM      9  C   UNL     1      -2.450  -0.386 -28.971  1.00  0.00     0.000 A 
ENDBRANCH   2   4
TORSDOF 1
ENDMDL
