MODEL 1
REMARK VINA RESULT:      -3.2      0.000      0.000
REMARK SMILES BrCBr
REMARK SMILES IDX 2 1 1 2 3 3
REMARK H PARENT
ROOT
ATOM      1  C   UNL     1       3.845  -0.977 -25.140  1.00  0.00     0.160 C 
ATOM      2  Br  UNL     1       5.167  -0.207 -26.321  1.00  0.00    -0.080 Br
ATOM      3  Br  UNL     1       4.614  -1.996 -23.689  1.00  0.00    -0.080 Br
ENDROOT
TORSDOF 0
ENDMDL
MODEL 2
REMARK VINA RESULT:      -3.2      0.063      2.638
REMARK SMILES BrCBr
REMARK SMILES IDX 2 1 1 2 3 3
REMARK H PARENT
ROOT
ATOM      1  C   UNL     1       3.892  -0.949 -25.156  1.00  0.00     0.160 C 
ATOM      2  Br  UNL     1       4.611  -1.996 -23.699  1.00  0.00    -0.080 Br
ATOM      3  Br  UNL     1       5.253  -0.180 -26.293  1.00  0.00    -0.080 Br
ENDROOT
TORSDOF 0
ENDMDL
MODEL 3
REMARK VINA RESULT:      -2.9      4.006      5.041
REMARK SMILES BrCBr
REMARK SMILES IDX 2 1 1 2 3 3
REMARK H PARENT
ROOT
ATOM      1  C   UNL     1       6.011  -2.978 -20.959  1.00  0.00     0.160 C 
ATOM      2  Br  UNL     1       6.624  -1.662 -19.683  1.00  0.00    -0.080 Br
ATOM      3  Br  UNL     1       5.087  -2.208 -22.472  1.00  0.00    -0.080 Br
ENDROOT
TORSDOF 0
ENDMDL
MODEL 4
REMARK VINA RESULT:      -2.9      4.067      4.731
REMARK SMILES BrCBr
REMARK SMILES IDX 2 1 1 2 3 3
REMARK H PARENT
ROOT
ATOM      1  C   UNL     1       6.015  -2.983 -20.870  1.00  0.00     0.160 C 
ATOM      2  Br  UNL     1       5.110  -2.243 -22.409  1.00  0.00    -0.080 Br
ATOM      3  Br  UNL     1       6.659  -1.639 -19.639  1.00  0.00    -0.080 Br
ENDROOT
TORSDOF 0
ENDMDL
MODEL 5
REMARK VINA RESULT:      -2.8      2.116      2.282
REMARK SMILES BrCBr
REMARK SMILES IDX 2 1 1 2 3 3
REMARK H PARENT
ROOT
ATOM      1  C   UNL     1       5.603   0.143 -26.262  1.00  0.00     0.160 C 
ATOM      2  Br  UNL     1       5.968   0.221 -28.159  1.00  0.00    -0.080 Br
ATOM      3  Br  UNL     1       4.094  -0.980 -25.816  1.00  0.00    -0.080 Br
ENDROOT
TORSDOF 0
ENDMDL
MODEL 6
REMARK VINA RESULT:      -2.6     10.964     11.425
REMARK SMILES BrCBr
REMARK SMILES IDX 2 1 1 2 3 3
REMARK H PARENT
ROOT
ATOM      1  C   UNL     1      -1.872 -10.416 -27.724  1.00  0.00     0.160 C 
ATOM      2  Br  UNL     1      -0.711  -9.886 -26.272  1.00  0.00    -0.080 Br
ATOM      3  Br  UNL     1      -3.392  -9.245 -27.956  1.00  0.00    -0.080 Br
ENDROOT
TORSDOF 0
ENDMDL
MODEL 7
REMARK VINA RESULT:      -2.6     10.957     11.298
REMARK SMILES BrCBr
REMARK SMILES IDX 2 1 1 2 3 3
REMARK H PARENT
ROOT
ATOM      1  C   UNL     1      -1.860 -10.401 -27.736  1.00  0.00     0.160 C 
ATOM      2  Br  UNL     1      -3.393  -9.247 -27.959  1.00  0.00    -0.080 Br
ATOM      3  Br  UNL     1      -0.712  -9.879 -26.271  1.00  0.00    -0.080 Br
ENDROOT
TORSDOF 0
ENDMDL
MODEL 8
REMARK VINA RESULT:      -2.5      5.982      6.643
REMARK SMILES BrCBr
REMARK SMILES IDX 2 1 1 2 3 3
REMARK H PARENT
ROOT
ATOM      1  C   UNL     1       6.524  -1.352 -19.052  1.00  0.00     0.160 C 
ATOM      2  Br  UNL     1       6.704  -2.850 -20.259  1.00  0.00    -0.080 Br
ATOM      3  Br  UNL     1       8.219  -0.607 -18.495  1.00  0.00    -0.080 Br
ENDROOT
TORSDOF 0
ENDMDL
MODEL 9
REMARK VINA RESULT:      -2.5      5.997      6.647
REMARK SMILES BrCBr
REMARK SMILES IDX 2 1 1 2 3 3
REMARK H PARENT
ROOT
ATOM      1  C   UNL     1       6.530  -1.397 -19.011  1.00  0.00     0.160 C 
ATOM      2  Br  UNL     1       8.217  -0.608 -18.495  1.00  0.00    -0.080 Br
ATOM      3  Br  UNL     1       6.717  -2.855 -20.267  1.00  0.00    -0.080 Br
ENDROOT
TORSDOF 0
ENDMDL
MODEL 10
REMARK VINA RESULT:      -2.4      5.938      6.666
REMARK SMILES BrCBr
REMARK SMILES IDX 2 1 1 2 3 3
REMARK H PARENT
ROOT
ATOM      1  C   UNL     1       6.977  -1.355 -19.211  1.00  0.00     0.160 C 
ATOM      2  Br  UNL     1       6.373  -2.856 -20.267  1.00  0.00    -0.080 Br
ATOM      3  Br  UNL     1       6.343  -1.396 -17.386  1.00  0.00    -0.080 Br
ENDROOT
TORSDOF 0
ENDMDL
