MODEL 1
REMARK VINA RESULT:      -6.8      0.000      0.000
REMARK SMILES C/C=C/c1ccc(O)c(OC)c1
REMARK SMILES IDX 4 1 12 2 9 3 7 4 6 5 5 6 3 7 2 8 1 9 10 10 11 11 8 12
REMARK H PARENT 8 13
ROOT
ATOM      1  C   UNL     1       6.164  -2.157 -20.392  1.00  0.00    -0.022 A 
ATOM      2  C   UNL     1       6.525  -1.012 -19.660  1.00  0.00     0.058 A 
ATOM      3  C   UNL     1       6.621  -1.063 -18.268  1.00  0.00     0.161 A 
ATOM      4  C   UNL     1       6.338  -2.267 -17.615  1.00  0.00     0.157 A 
ATOM      5  C   UNL     1       5.965  -3.404 -18.318  1.00  0.00     0.051 A 
ATOM      6  C   UNL     1       5.873  -3.346 -19.708  1.00  0.00     0.012 A 
ENDROOT
BRANCH   1   7
ATOM      7  C   UNL     1       6.021  -2.135 -21.856  1.00  0.00     0.003 C 
ATOM      8  C   UNL     1       4.844  -2.079 -22.499  1.00  0.00    -0.030 C 
ATOM      9  C   UNL     1       4.717  -2.046 -23.988  1.00  0.00     0.035 C 
ENDBRANCH   1   7
BRANCH   3  10
ATOM     10  O   UNL     1       6.967  -0.025 -17.440  1.00  0.00    -0.493 OA
ATOM     11  C   UNL     1       8.304   0.452 -17.542  1.00  0.00     0.278 C 
ENDBRANCH   3  10
BRANCH   4  12
ATOM     12  O   UNL     1       6.421  -2.348 -16.252  1.00  0.00    -0.504 OA
ATOM     13  H   UNL     1       6.007  -3.205 -16.027  1.00  0.00     0.293 HD
ENDBRANCH   4  12
TORSDOF 3
ENDMDL
MODEL 2
REMARK VINA RESULT:      -6.1      1.642      2.255
REMARK SMILES C/C=C/c1ccc(O)c(OC)c1
REMARK SMILES IDX 4 1 12 2 9 3 7 4 6 5 5 6 3 7 2 8 1 9 10 10 11 11 8 12
REMARK H PARENT 8 13
ROOT
ATOM      1  C   UNL     1       6.963  -1.283 -18.926  1.00  0.00    -0.022 A 
ATOM      2  C   UNL     1       8.231  -0.750 -18.638  1.00  0.00     0.058 A 
ATOM      3  C   UNL     1       8.704  -0.717 -17.325  1.00  0.00     0.161 A 
ATOM      4  C   UNL     1       7.888  -1.210 -16.301  1.00  0.00     0.157 A 
ATOM      5  C   UNL     1       6.627  -1.726 -16.562  1.00  0.00     0.051 A 
ATOM      6  C   UNL     1       6.162  -1.757 -17.876  1.00  0.00     0.012 A 
ENDROOT
BRANCH   1   7
ATOM      7  C   UNL     1       6.417  -1.306 -20.291  1.00  0.00     0.003 C 
ATOM      8  C   UNL     1       5.847  -2.382 -20.857  1.00  0.00    -0.030 C 
ATOM      9  C   UNL     1       5.286  -2.387 -22.243  1.00  0.00     0.035 C 
ENDBRANCH   1   7
BRANCH   3  10
ATOM     10  O   UNL     1       9.919  -0.231 -16.911  1.00  0.00    -0.493 OA
ATOM     11  C   UNL     1       9.923   1.074 -16.343  1.00  0.00     0.278 C 
ENDBRANCH   3  10
BRANCH   4  12
ATOM     12  O   UNL     1       8.322  -1.189 -15.003  1.00  0.00    -0.504 OA
ATOM     13  H   UNL     1       8.963  -1.923 -14.942  1.00  0.00     0.293 HD
ENDBRANCH   4  12
TORSDOF 3
ENDMDL
MODEL 3
REMARK VINA RESULT:      -6.0     13.251     14.850
REMARK SMILES C/C=C/c1ccc(O)c(OC)c1
REMARK SMILES IDX 4 1 12 2 9 3 7 4 6 5 5 6 3 7 2 8 1 9 10 10 11 11 8 12
REMARK H PARENT 8 13
ROOT
ATOM      1  C   UNL     1      -3.583   0.047 -27.865  1.00  0.00    -0.022 A 
ATOM      2  C   UNL     1      -4.624  -0.388 -28.704  1.00  0.00     0.058 A 
ATOM      3  C   UNL     1      -4.385  -0.633 -30.058  1.00  0.00     0.161 A 
ATOM      4  C   UNL     1      -3.099  -0.426 -30.566  1.00  0.00     0.157 A 
ATOM      5  C   UNL     1      -2.061   0.017 -29.758  1.00  0.00     0.051 A 
ATOM      6  C   UNL     1      -2.306   0.258 -28.407  1.00  0.00     0.012 A 
ENDROOT
BRANCH   1   7
ATOM      7  C   UNL     1      -3.800   0.346 -26.442  1.00  0.00     0.003 C 
ATOM      8  C   UNL     1      -4.780  -0.194 -25.699  1.00  0.00    -0.030 C 
ATOM      9  C   UNL     1      -4.981   0.111 -24.249  1.00  0.00     0.035 C 
ENDBRANCH   1   7
BRANCH   3  10
ATOM     10  O   UNL     1      -5.307  -1.063 -30.980  1.00  0.00    -0.493 OA
ATOM     11  C   UNL     1      -6.423  -0.210 -31.209  1.00  0.00     0.278 C 
ENDBRANCH   3  10
BRANCH   4  12
ATOM     12  O   UNL     1      -2.835  -0.655 -31.889  1.00  0.00    -0.504 OA
ATOM     13  H   UNL     1      -3.713  -0.728 -32.310  1.00  0.00     0.293 HD
ENDBRANCH   4  12
TORSDOF 3
ENDMDL
MODEL 4
REMARK VINA RESULT:      -5.8      2.477      4.193
REMARK SMILES C/C=C/c1ccc(O)c(OC)c1
REMARK SMILES IDX 4 1 12 2 9 3 7 4 6 5 5 6 3 7 2 8 1 9 10 10 11 11 8 12
REMARK H PARENT 8 13
ROOT
ATOM      1  C   UNL     1       8.165  -0.502 -17.977  1.00  0.00    -0.022 A 
ATOM      2  C   UNL     1       9.326  -0.781 -17.236  1.00  0.00     0.058 A 
ATOM      3  C   UNL     1       9.651  -0.014 -16.115  1.00  0.00     0.161 A 
ATOM      4  C   UNL     1       8.811   1.044 -15.753  1.00  0.00     0.157 A 
ATOM      5  C   UNL     1       7.668   1.345 -16.481  1.00  0.00     0.051 A 
ATOM      6  C   UNL     1       7.348   0.574 -17.597  1.00  0.00     0.012 A 
ENDROOT
BRANCH   1   7
ATOM      7  C   UNL     1       7.804  -1.267 -19.181  1.00  0.00     0.003 C 
ATOM      8  C   UNL     1       6.546  -1.588 -19.522  1.00  0.00    -0.030 C 
ATOM      9  C   UNL     1       6.195  -2.356 -20.756  1.00  0.00     0.035 C 
ENDBRANCH   1   7
BRANCH   3  10
ATOM     10  O   UNL     1      10.747  -0.184 -15.306  1.00  0.00    -0.493 OA
ATOM     11  C   UNL     1      11.983   0.328 -15.792  1.00  0.00     0.278 C 
ENDBRANCH   3  10
BRANCH   4  12
ATOM     12  O   UNL     1       9.104   1.815 -14.662  1.00  0.00    -0.504 OA
ATOM     13  H   UNL     1       9.009   2.736 -14.974  1.00  0.00     0.293 HD
ENDBRANCH   4  12
TORSDOF 3
ENDMDL
MODEL 5
REMARK VINA RESULT:      -5.7     12.968     13.604
REMARK SMILES C/C=C/c1ccc(O)c(OC)c1
REMARK SMILES IDX 4 1 12 2 9 3 7 4 6 5 5 6 3 7 2 8 1 9 10 10 11 11 8 12
REMARK H PARENT 8 13
ROOT
ATOM      1  C   UNL     1      -4.416  -0.956 -27.007  1.00  0.00    -0.022 A 
ATOM      2  C   UNL     1      -3.789   0.302 -26.990  1.00  0.00     0.058 A 
ATOM      3  C   UNL     1      -2.948   0.688 -28.036  1.00  0.00     0.161 A 
ATOM      4  C   UNL     1      -2.730  -0.204 -29.091  1.00  0.00     0.157 A 
ATOM      5  C   UNL     1      -3.328  -1.456 -29.120  1.00  0.00     0.051 A 
ATOM      6  C   UNL     1      -4.168  -1.834 -28.073  1.00  0.00     0.012 A 
ENDROOT
BRANCH   1   7
ATOM      7  C   UNL     1      -5.284  -1.411 -25.910  1.00  0.00     0.003 C 
ATOM      8  C   UNL     1      -5.570  -0.679 -24.822  1.00  0.00    -0.030 C 
ATOM      9  C   UNL     1      -6.464  -1.151 -23.720  1.00  0.00     0.035 C 
ENDBRANCH   1   7
BRANCH   3  10
ATOM     10  O   UNL     1      -2.282   1.883 -28.143  1.00  0.00    -0.493 OA
ATOM     11  C   UNL     1      -3.072   3.025 -28.456  1.00  0.00     0.278 C 
ENDBRANCH   3  10
BRANCH   4  12
ATOM     12  O   UNL     1      -1.909   0.144 -30.129  1.00  0.00    -0.504 OA
ATOM     13  H   UNL     1      -2.445  -0.006 -30.933  1.00  0.00     0.293 HD
ENDBRANCH   4  12
TORSDOF 3
ENDMDL
MODEL 6
REMARK VINA RESULT:      -5.7      1.465      2.074
REMARK SMILES C/C=C/c1ccc(O)c(OC)c1
REMARK SMILES IDX 4 1 12 2 9 3 7 4 6 5 5 6 3 7 2 8 1 9 10 10 11 11 8 12
REMARK H PARENT 8 13
ROOT
ATOM      1  C   UNL     1       6.707  -1.859 -19.732  1.00  0.00    -0.022 A 
ATOM      2  C   UNL     1       6.277  -1.063 -18.657  1.00  0.00     0.058 A 
ATOM      3  C   UNL     1       7.203  -0.526 -17.760  1.00  0.00     0.161 A 
ATOM      4  C   UNL     1       8.561  -0.807 -17.942  1.00  0.00     0.157 A 
ATOM      5  C   UNL     1       9.004  -1.603 -18.988  1.00  0.00     0.051 A 
ATOM      6  C   UNL     1       8.074  -2.134 -19.881  1.00  0.00     0.012 A 
ENDROOT
BRANCH   1   7
ATOM      7  C   UNL     1       5.760  -2.468 -20.680  1.00  0.00     0.003 C 
ATOM      8  C   UNL     1       5.494  -1.977 -21.900  1.00  0.00    -0.030 C 
ATOM      9  C   UNL     1       4.538  -2.613 -22.857  1.00  0.00     0.035 C 
ENDBRANCH   1   7
BRANCH   3  10
ATOM     10  O   UNL     1       6.918   0.268 -16.677  1.00  0.00    -0.493 OA
ATOM     11  C   UNL     1       7.095   1.670 -16.852  1.00  0.00     0.278 C 
ENDBRANCH   3  10
BRANCH   4  12
ATOM     12  O   UNL     1       9.492  -0.298 -17.078  1.00  0.00    -0.504 OA
ATOM     13  H   UNL     1       9.982   0.367 -17.601  1.00  0.00     0.293 HD
ENDBRANCH   4  12
TORSDOF 3
ENDMDL
MODEL 7
REMARK VINA RESULT:      -5.6     17.350     19.969
REMARK SMILES C/C=C/c1ccc(O)c(OC)c1
REMARK SMILES IDX 4 1 12 2 9 3 7 4 6 5 5 6 3 7 2 8 1 9 10 10 11 11 8 12
REMARK H PARENT 8 13
ROOT
ATOM      1  C   UNL     1      -7.686   1.311 -32.089  1.00  0.00    -0.022 A 
ATOM      2  C   UNL     1      -8.623   0.993 -31.091  1.00  0.00     0.058 A 
ATOM      3  C   UNL     1      -9.878   0.487 -31.434  1.00  0.00     0.161 A 
ATOM      4  C   UNL     1     -10.191   0.317 -32.786  1.00  0.00     0.157 A 
ATOM      5  C   UNL     1      -9.286   0.639 -33.788  1.00  0.00     0.051 A 
ATOM      6  C   UNL     1      -8.034   1.142 -33.438  1.00  0.00     0.012 A 
ENDROOT
BRANCH   1   7
ATOM      7  C   UNL     1      -6.365   1.875 -31.770  1.00  0.00     0.003 C 
ATOM      8  C   UNL     1      -6.128   2.704 -30.741  1.00  0.00    -0.030 C 
ATOM      9  C   UNL     1      -4.777   3.259 -30.422  1.00  0.00     0.035 C 
ENDBRANCH   1   7
BRANCH   3  10
ATOM     10  O   UNL     1     -10.877   0.133 -30.562  1.00  0.00    -0.493 OA
ATOM     11  C   UNL     1     -10.477  -0.560 -29.384  1.00  0.00     0.278 C 
ENDBRANCH   3  10
BRANCH   4  12
ATOM     12  O   UNL     1     -11.414  -0.174 -33.155  1.00  0.00    -0.504 OA
ATOM     13  H   UNL     1     -11.770   0.486 -33.782  1.00  0.00     0.293 HD
ENDBRANCH   4  12
TORSDOF 3
ENDMDL
MODEL 8
REMARK VINA RESULT:      -5.4     13.413     15.143
REMARK SMILES C/C=C/c1ccc(O)c(OC)c1
REMARK SMILES IDX 4 1 12 2 9 3 7 4 6 5 5 6 3 7 2 8 1 9 10 10 11 11 8 12
REMARK H PARENT 8 13
ROOT
ATOM      1  C   UNL     1      -3.178   1.683 -28.806  1.00  0.00    -0.022 A 
ATOM      2  C   UNL     1      -4.085   1.523 -29.868  1.00  0.00     0.058 A 
ATOM      3  C   UNL     1      -4.243   0.279 -30.482  1.00  0.00     0.161 A 
ATOM      4  C   UNL     1      -3.474  -0.799 -30.032  1.00  0.00     0.157 A 
ATOM      5  C   UNL     1      -2.563  -0.658 -28.995  1.00  0.00     0.051 A 
ATOM      6  C   UNL     1      -2.411   0.586 -28.386  1.00  0.00     0.012 A 
ENDROOT
BRANCH   1   7
ATOM      7  C   UNL     1      -2.961   2.984 -28.155  1.00  0.00     0.003 C 
ATOM      8  C   UNL     1      -3.318   4.163 -28.687  1.00  0.00    -0.030 C 
ATOM      9  C   UNL     1      -3.101   5.477 -28.007  1.00  0.00     0.035 C 
ENDBRANCH   1   7
BRANCH   3  10
ATOM     10  O   UNL     1      -5.094  -0.012 -31.519  1.00  0.00    -0.493 OA
ATOM     11  C   UNL     1      -6.480  -0.089 -31.203  1.00  0.00     0.278 C 
ENDBRANCH   3  10
BRANCH   4  12
ATOM     12  O   UNL     1      -3.604  -2.030 -30.615  1.00  0.00    -0.504 OA
ATOM     13  H   UNL     1      -4.568  -2.173 -30.685  1.00  0.00     0.293 HD
ENDBRANCH   4  12
TORSDOF 3
ENDMDL
MODEL 9
REMARK VINA RESULT:      -5.3     12.948     14.638
REMARK SMILES C/C=C/c1ccc(O)c(OC)c1
REMARK SMILES IDX 4 1 12 2 9 3 7 4 6 5 5 6 3 7 2 8 1 9 10 10 11 11 8 12
REMARK H PARENT 8 13
ROOT
ATOM      1  C   UNL     1      -3.178 -10.219 -27.358  1.00  0.00    -0.022 A 
ATOM      2  C   UNL     1      -2.103 -11.107 -27.180  1.00  0.00     0.058 A 
ATOM      3  C   UNL     1      -0.788 -10.637 -27.183  1.00  0.00     0.161 A 
ATOM      4  C   UNL     1      -0.560  -9.271 -27.380  1.00  0.00     0.157 A 
ATOM      5  C   UNL     1      -1.607  -8.380 -27.572  1.00  0.00     0.051 A 
ATOM      6  C   UNL     1      -2.917  -8.856 -27.566  1.00  0.00     0.012 A 
ENDROOT
BRANCH   1   7
ATOM      7  C   UNL     1      -4.574 -10.680 -27.391  1.00  0.00     0.003 C 
ATOM      8  C   UNL     1      -5.254 -11.107 -26.316  1.00  0.00    -0.030 C 
ATOM      9  C   UNL     1      -6.678 -11.561 -26.364  1.00  0.00     0.035 C 
ENDBRANCH   1   7
BRANCH   3  10
ATOM     10  O   UNL     1       0.345 -11.393 -27.016  1.00  0.00    -0.493 OA
ATOM     11  C   UNL     1       0.573 -11.918 -25.713  1.00  0.00     0.278 C 
ENDBRANCH   3  10
BRANCH   4  12
ATOM     12  O   UNL     1       0.717  -8.780 -27.392  1.00  0.00    -0.504 OA
ATOM     13  H   UNL     1       1.083  -9.054 -28.255  1.00  0.00     0.293 HD
ENDBRANCH   4  12
TORSDOF 3
ENDMDL
MODEL 10
REMARK VINA RESULT:      -5.2     14.926     17.567
REMARK SMILES C/C=C/c1ccc(O)c(OC)c1
REMARK SMILES IDX 4 1 12 2 9 3 7 4 6 5 5 6 3 7 2 8 1 9 10 10 11 11 8 12
REMARK H PARENT 8 13
ROOT
ATOM      1  C   UNL     1      -7.137   1.181 -31.464  1.00  0.00    -0.022 A 
ATOM      2  C   UNL     1      -6.219   0.118 -31.530  1.00  0.00     0.058 A 
ATOM      3  C   UNL     1      -4.937   0.258 -30.995  1.00  0.00     0.161 A 
ATOM      4  C   UNL     1      -4.579   1.475 -30.406  1.00  0.00     0.157 A 
ATOM      5  C   UNL     1      -5.466   2.540 -30.344  1.00  0.00     0.051 A 
ATOM      6  C   UNL     1      -6.744   2.394 -30.879  1.00  0.00     0.012 A 
ENDROOT
BRANCH   1   7
ATOM      7  C   UNL     1      -8.486   1.084 -32.044  1.00  0.00     0.003 C 
ATOM      8  C   UNL     1      -8.769   0.454 -33.194  1.00  0.00    -0.030 C 
ATOM      9  C   UNL     1     -10.147   0.354 -33.765  1.00  0.00     0.035 C 
ENDBRANCH   1   7
BRANCH   3  10
ATOM     10  O   UNL     1      -3.952  -0.698 -30.989  1.00  0.00    -0.493 OA
ATOM     11  C   UNL     1      -4.073  -1.731 -30.017  1.00  0.00     0.278 C 
ENDBRANCH   3  10
BRANCH   4  12
ATOM     12  O   UNL     1      -3.329   1.643 -29.875  1.00  0.00    -0.504 OA
ATOM     13  H   UNL     1      -3.411   2.415 -29.282  1.00  0.00     0.293 HD
ENDBRANCH   4  12
TORSDOF 3
ENDMDL
