MODEL 1
REMARK VINA RESULT:      -9.0      0.000      0.000
REMARK SMILES O=C(/C=C/c1ccc(O)c(O)c1/C=C/c1ccc(O)c(O)c1)O[C@H](Cc1ccc(O)c(O)c1)C(=O)O
REMARK SMILES IDX 2 1 1 2 23 3 24 4 25 5 26 6 27 7 28 8 29 9 33 10 31 11 30 12
REMARK SMILES IDX 32 14 34 16 35 17 36 18 3 20 4 21 5 22 12 23 6 24 10 25 7 26
REMARK SMILES IDX 8 27 13 28 14 29 15 30 22 31 16 32 20 33 17 34 18 35 21 36
REMARK SMILES IDX 19 38 11 40 9 42
REMARK H PARENT 30 13 32 15 36 19 21 37 19 39 11 41 9 43
ROOT
ATOM      1  C   UNL     1      -6.332  -0.917 -25.205  1.00  0.00     0.331 C 
ATOM      2  O   UNL     1      -6.302  -1.700 -24.264  1.00  0.00    -0.247 OA
ENDROOT
BRANCH   1   3
ATOM      3  O   UNL     1      -7.360  -0.082 -25.466  1.00  0.00    -0.447 OA
BRANCH   3   4
ATOM      4  C   UNL     1      -8.654  -0.697 -25.569  1.00  0.00     0.290 C 
BRANCH   4   5
ATOM      5  C   UNL     1      -9.059  -0.693 -27.054  1.00  0.00     0.093 C 
BRANCH   5   6
ATOM      6  C   UNL     1      -9.097  -2.095 -27.628  1.00  0.00    -0.040 A 
ATOM      7  C   UNL     1      -8.044  -2.569 -28.429  1.00  0.00     0.008 A 
ATOM      8  C   UNL     1      -8.099  -3.847 -28.996  1.00  0.00     0.050 A 
ATOM      9  C   UNL     1      -9.213  -4.645 -28.767  1.00  0.00     0.157 A 
ATOM     10  C   UNL     1     -10.209  -2.919 -27.402  1.00  0.00     0.054 A 
ATOM     11  C   UNL     1     -10.260  -4.179 -27.979  1.00  0.00     0.157 A 
BRANCH   9  12
ATOM     12  O   UNL     1      -9.329  -5.898 -29.302  1.00  0.00    -0.504 OA
ATOM     13  H   UNL     1     -10.140  -6.303 -28.949  1.00  0.00     0.293 HD
ENDBRANCH   9  12
BRANCH  11  14
ATOM     14  O   UNL     1     -11.359  -4.963 -27.770  1.00  0.00    -0.504 OA
ATOM     15  H   UNL     1     -11.206  -5.749 -28.330  1.00  0.00     0.293 HD
ENDBRANCH  11  14
ENDBRANCH   5   6
ENDBRANCH   4   5
BRANCH   4  16
ATOM     16  C   UNL     1      -9.713   0.033 -24.735  1.00  0.00     0.345 C 
ATOM     17  O   UNL     1     -10.922  -0.105 -24.872  1.00  0.00    -0.248 OA
BRANCH  16  18
ATOM     18  O   UNL     1      -9.200   0.849 -23.782  1.00  0.00    -0.478 OA
ATOM     19  H   UNL     1      -8.402   1.355 -24.070  1.00  0.00     0.296 HD
ENDBRANCH  16  18
ENDBRANCH   4  16
ENDBRANCH   3   4
ENDBRANCH   1   3
BRANCH   1  20
ATOM     20  C   UNL     1      -5.241  -0.795 -26.186  1.00  0.00     0.094 C 
ATOM     21  C   UNL     1      -5.315  -0.039 -27.293  1.00  0.00     0.016 C 
BRANCH  21  22
ATOM     22  C   UNL     1      -4.236   0.008 -28.291  1.00  0.00    -0.014 A 
ATOM     23  C   UNL     1      -4.432  -0.222 -29.673  1.00  0.00     0.027 A 
ATOM     24  C   UNL     1      -2.945   0.288 -27.802  1.00  0.00     0.013 A 
ATOM     25  C   UNL     1      -3.316  -0.160 -30.524  1.00  0.00     0.165 A 
ATOM     26  C   UNL     1      -1.853   0.360 -28.667  1.00  0.00     0.051 A 
ATOM     27  C   UNL     1      -2.050   0.137 -30.019  1.00  0.00     0.158 A 
BRANCH  23  28
ATOM     28  C   UNL     1      -5.771  -0.540 -30.200  1.00  0.00     0.013 C 
ATOM     29  C   UNL     1      -6.505   0.374 -30.853  1.00  0.00     0.009 C 
BRANCH  29  30
ATOM     30  C   UNL     1      -7.849   0.123 -31.396  1.00  0.00    -0.022 A 
ATOM     31  C   UNL     1      -8.635   1.223 -31.777  1.00  0.00     0.058 A 
ATOM     32  C   UNL     1      -8.390  -1.171 -31.492  1.00  0.00     0.012 A 
ATOM     33  C   UNL     1      -9.920   1.015 -32.271  1.00  0.00     0.157 A 
ATOM     34  C   UNL     1      -9.681  -1.370 -31.990  1.00  0.00     0.051 A 
ATOM     35  C   UNL     1     -10.433  -0.274 -32.377  1.00  0.00     0.157 A 
BRANCH  33  36
ATOM     36  O   UNL     1     -10.722   2.051 -32.664  1.00  0.00    -0.504 OA
ATOM     37  H   UNL     1     -11.214   2.369 -31.887  1.00  0.00     0.293 HD
ENDBRANCH  33  36
BRANCH  35  38
ATOM     38  O   UNL     1     -11.695  -0.469 -32.863  1.00  0.00    -0.504 OA
ATOM     39  H   UNL     1     -11.560  -0.834 -33.759  1.00  0.00     0.293 HD
ENDBRANCH  35  38
ENDBRANCH  29  30
ENDBRANCH  23  28
BRANCH  25  40
ATOM     40  O   UNL     1      -3.381  -0.397 -31.878  1.00  0.00    -0.504 OA
ATOM     41  H   UNL     1      -2.474  -0.540 -32.200  1.00  0.00     0.293 HD
ENDBRANCH  25  40
BRANCH  27  42
ATOM     42  O   UNL     1      -0.976   0.198 -30.863  1.00  0.00    -0.504 OA
ATOM     43  H   UNL     1      -0.784  -0.736 -31.082  1.00  0.00     0.293 HD
ENDBRANCH  27  42
ENDBRANCH  21  22
ENDBRANCH   1  20
TORSDOF 16
ENDMDL
MODEL 2
REMARK VINA RESULT:      -9.0      2.795      6.434
REMARK SMILES O=C(/C=C/c1ccc(O)c(O)c1/C=C/c1ccc(O)c(O)c1)O[C@H](Cc1ccc(O)c(O)c1)C(=O)O
REMARK SMILES IDX 2 1 1 2 23 3 24 4 25 5 26 6 27 7 28 8 29 9 33 10 31 11 30 12
REMARK SMILES IDX 32 14 34 16 35 17 36 18 3 20 4 21 5 22 12 23 6 24 10 25 7 26
REMARK SMILES IDX 8 27 13 28 14 29 15 30 22 31 16 32 20 33 17 34 18 35 21 36
REMARK SMILES IDX 19 38 11 40 9 42
REMARK H PARENT 30 13 32 15 36 19 21 37 19 39 11 41 9 43
ROOT
ATOM      1  C   UNL     1      -8.259  -0.486 -26.336  1.00  0.00     0.331 C 
ATOM      2  O   UNL     1      -8.931   0.183 -25.561  1.00  0.00    -0.247 OA
ENDROOT
BRANCH   1   3
ATOM      3  O   UNL     1      -7.241  -1.289 -25.961  1.00  0.00    -0.447 OA
BRANCH   3   4
ATOM      4  C   UNL     1      -5.955  -0.658 -25.851  1.00  0.00     0.290 C 
BRANCH   4   5
ATOM      5  C   UNL     1      -4.898  -1.653 -26.363  1.00  0.00     0.093 C 
BRANCH   5   6
ATOM      6  C   UNL     1      -4.478  -1.341 -27.785  1.00  0.00    -0.040 A 
ATOM      7  C   UNL     1      -5.117  -1.960 -28.872  1.00  0.00     0.008 A 
ATOM      8  C   UNL     1      -4.700  -1.709 -30.184  1.00  0.00     0.050 A 
ATOM      9  C   UNL     1      -3.636  -0.843 -30.403  1.00  0.00     0.157 A 
ATOM     10  C   UNL     1      -3.410  -0.464 -28.028  1.00  0.00     0.054 A 
ATOM     11  C   UNL     1      -2.996  -0.230 -29.331  1.00  0.00     0.157 A 
BRANCH   9  12
ATOM     12  O   UNL     1      -3.177  -0.564 -31.661  1.00  0.00    -0.504 OA
ATOM     13  H   UNL     1      -2.247  -0.845 -31.712  1.00  0.00     0.293 HD
ENDBRANCH   9  12
BRANCH  11  14
ATOM     14  O   UNL     1      -1.940   0.607 -29.553  1.00  0.00    -0.504 OA
ATOM     15  H   UNL     1      -2.349   1.489 -29.663  1.00  0.00     0.293 HD
ENDBRANCH  11  14
ENDBRANCH   5   6
ENDBRANCH   4   5
BRANCH   4  16
ATOM     16  C   UNL     1      -5.631  -0.243 -24.412  1.00  0.00     0.345 C 
ATOM     17  O   UNL     1      -6.251  -0.615 -23.424  1.00  0.00    -0.248 OA
BRANCH  16  18
ATOM     18  O   UNL     1      -4.552   0.571 -24.301  1.00  0.00    -0.478 OA
ATOM     19  H   UNL     1      -3.868   0.251 -23.664  1.00  0.00     0.296 HD
ENDBRANCH  16  18
ENDBRANCH   4  16
ENDBRANCH   3   4
ENDBRANCH   1   3
BRANCH   1  20
ATOM     20  C   UNL     1      -8.475  -0.490 -27.793  1.00  0.00     0.094 C 
ATOM     21  C   UNL     1      -7.903   0.387 -28.633  1.00  0.00     0.016 C 
BRANCH  21  22
ATOM     22  C   UNL     1      -8.192   0.402 -30.075  1.00  0.00    -0.014 A 
ATOM     23  C   UNL     1      -7.363   1.026 -31.036  1.00  0.00     0.027 A 
ATOM     24  C   UNL     1      -9.378  -0.239 -30.482  1.00  0.00     0.013 A 
ATOM     25  C   UNL     1      -7.755   0.981 -32.385  1.00  0.00     0.165 A 
ATOM     26  C   UNL     1      -9.741  -0.285 -31.828  1.00  0.00     0.051 A 
ATOM     27  C   UNL     1      -8.925   0.324 -32.765  1.00  0.00     0.158 A 
BRANCH  23  28
ATOM     28  C   UNL     1      -6.131   1.724 -30.628  1.00  0.00     0.013 C 
ATOM     29  C   UNL     1      -6.147   3.003 -30.221  1.00  0.00     0.009 C 
BRANCH  29  30
ATOM     30  C   UNL     1      -4.954   3.757 -29.809  1.00  0.00    -0.022 A 
ATOM     31  C   UNL     1      -4.503   4.802 -30.632  1.00  0.00     0.058 A 
ATOM     32  C   UNL     1      -4.222   3.432 -28.654  1.00  0.00     0.012 A 
ATOM     33  C   UNL     1      -3.363   5.517 -30.278  1.00  0.00     0.157 A 
ATOM     34  C   UNL     1      -3.078   4.155 -28.306  1.00  0.00     0.051 A 
ATOM     35  C   UNL     1      -2.660   5.194 -29.122  1.00  0.00     0.157 A 
BRANCH  33  36
ATOM     36  O   UNL     1      -2.888   6.548 -31.041  1.00  0.00    -0.504 OA
ATOM     37  H   UNL     1      -3.573   7.238 -31.084  1.00  0.00     0.293 HD
ENDBRANCH  33  36
BRANCH  35  38
ATOM     38  O   UNL     1      -1.542   5.900 -28.782  1.00  0.00    -0.504 OA
ATOM     39  H   UNL     1      -1.664   6.114 -27.836  1.00  0.00     0.293 HD
ENDBRANCH  35  38
ENDBRANCH  29  30
ENDBRANCH  23  28
BRANCH  25  40
ATOM     40  O   UNL     1      -7.045   1.579 -33.401  1.00  0.00    -0.504 OA
ATOM     41  H   UNL     1      -7.184   1.056 -34.210  1.00  0.00     0.293 HD
ENDBRANCH  25  40
BRANCH  27  42
ATOM     42  O   UNL     1      -9.288   0.287 -34.083  1.00  0.00    -0.504 OA
ATOM     43  H   UNL     1      -8.704   0.941 -34.516  1.00  0.00     0.293 HD
ENDBRANCH  27  42
ENDBRANCH  21  22
ENDBRANCH   1  20
TORSDOF 16
ENDMDL
MODEL 3
REMARK VINA RESULT:      -8.9      1.924      7.527
REMARK SMILES O=C(/C=C/c1ccc(O)c(O)c1/C=C/c1ccc(O)c(O)c1)O[C@H](Cc1ccc(O)c(O)c1)C(=O)O
REMARK SMILES IDX 2 1 1 2 23 3 24 4 25 5 26 6 27 7 28 8 29 9 33 10 31 11 30 12
REMARK SMILES IDX 32 14 34 16 35 17 36 18 3 20 4 21 5 22 12 23 6 24 10 25 7 26
REMARK SMILES IDX 8 27 13 28 14 29 15 30 22 31 16 32 20 33 17 34 18 35 21 36
REMARK SMILES IDX 19 38 11 40 9 42
REMARK H PARENT 30 13 32 15 36 19 21 37 19 39 11 41 9 43
ROOT
ATOM      1  C   UNL     1      -9.299  -1.765 -30.652  1.00  0.00     0.331 C 
ATOM      2  O   UNL     1      -8.684  -2.487 -31.427  1.00  0.00    -0.247 OA
ENDROOT
BRANCH   1   3
ATOM      3  O   UNL     1     -10.131  -0.773 -31.036  1.00  0.00    -0.447 OA
BRANCH   3   4
ATOM      4  C   UNL     1      -9.553   0.236 -31.879  1.00  0.00     0.290 C 
BRANCH   4   5
ATOM      5  C   UNL     1      -9.325   1.493 -31.020  1.00  0.00     0.093 C 
BRANCH   5   6
ATOM      6  C   UNL     1      -7.851   1.812 -30.874  1.00  0.00    -0.040 A 
ATOM      7  C   UNL     1      -6.973   1.649 -31.959  1.00  0.00     0.008 A 
ATOM      8  C   UNL     1      -5.605   1.900 -31.814  1.00  0.00     0.050 A 
ATOM      9  C   UNL     1      -5.116   2.306 -30.578  1.00  0.00     0.157 A 
ATOM     10  C   UNL     1      -7.340   2.229 -29.636  1.00  0.00     0.054 A 
ATOM     11  C   UNL     1      -5.980   2.464 -29.498  1.00  0.00     0.157 A 
BRANCH   9  12
ATOM     12  O   UNL     1      -3.788   2.557 -30.371  1.00  0.00    -0.504 OA
ATOM     13  H   UNL     1      -3.649   2.675 -29.415  1.00  0.00     0.293 HD
ENDBRANCH   9  12
BRANCH  11  14
ATOM     14  O   UNL     1      -5.490   2.848 -28.282  1.00  0.00    -0.504 OA
ATOM     15  H   UNL     1      -6.189   3.421 -27.910  1.00  0.00     0.293 HD
ENDBRANCH  11  14
ENDBRANCH   5   6
ENDBRANCH   4   5
BRANCH   4  16
ATOM     16  C   UNL     1     -10.447   0.575 -33.077  1.00  0.00     0.345 C 
ATOM     17  O   UNL     1     -10.720  -0.201 -33.983  1.00  0.00    -0.248 OA
BRANCH  16  18
ATOM     18  O   UNL     1     -10.957   1.831 -33.048  1.00  0.00    -0.478 OA
ATOM     19  H   UNL     1     -10.297   2.530 -32.817  1.00  0.00     0.296 HD
ENDBRANCH  16  18
ENDBRANCH   4  16
ENDBRANCH   3   4
ENDBRANCH   1   3
BRANCH   1  20
ATOM     20  C   UNL     1      -9.198  -1.883 -29.188  1.00  0.00     0.094 C 
ATOM     21  C   UNL     1      -9.437  -0.871 -28.340  1.00  0.00     0.016 C 
BRANCH  21  22
ATOM     22  C   UNL     1      -9.260  -1.001 -26.885  1.00  0.00    -0.014 A 
ATOM     23  C   UNL     1      -8.039  -0.753 -26.217  1.00  0.00     0.027 A 
ATOM     24  C   UNL     1     -10.391  -1.412 -26.153  1.00  0.00     0.013 A 
ATOM     25  C   UNL     1      -7.995  -0.923 -24.823  1.00  0.00     0.165 A 
ATOM     26  C   UNL     1     -10.329  -1.561 -24.767  1.00  0.00     0.051 A 
ATOM     27  C   UNL     1      -9.133  -1.314 -24.117  1.00  0.00     0.158 A 
BRANCH  23  28
ATOM     28  C   UNL     1      -6.838  -0.346 -26.969  1.00  0.00     0.013 C 
ATOM     29  C   UNL     1      -5.951  -1.247 -27.419  1.00  0.00     0.009 C 
BRANCH  29  30
ATOM     30  C   UNL     1      -4.731  -0.906 -28.166  1.00  0.00    -0.022 A 
ATOM     31  C   UNL     1      -3.750  -0.126 -27.532  1.00  0.00     0.058 A 
ATOM     32  C   UNL     1      -4.540  -1.287 -29.506  1.00  0.00     0.012 A 
ATOM     33  C   UNL     1      -2.597   0.230 -28.224  1.00  0.00     0.157 A 
ATOM     34  C   UNL     1      -3.379  -0.924 -30.194  1.00  0.00     0.051 A 
ATOM     35  C   UNL     1      -2.416  -0.170 -29.544  1.00  0.00     0.157 A 
BRANCH  33  36
ATOM     36  O   UNL     1      -1.609   0.981 -27.648  1.00  0.00    -0.504 OA
ATOM     37  H   UNL     1      -1.320   1.652 -28.290  1.00  0.00     0.293 HD
ENDBRANCH  33  36
BRANCH  35  38
ATOM     38  O   UNL     1      -1.281   0.185 -30.216  1.00  0.00    -0.504 OA
ATOM     39  H   UNL     1      -1.158  -0.521 -30.881  1.00  0.00     0.293 HD
ENDBRANCH  35  38
ENDBRANCH  29  30
ENDBRANCH  23  28
BRANCH  25  40
ATOM     40  O   UNL     1      -6.856  -0.742 -24.072  1.00  0.00    -0.504 OA
ATOM     41  H   UNL     1      -6.111  -1.133 -24.561  1.00  0.00     0.293 HD
ENDBRANCH  25  40
BRANCH  27  42
ATOM     42  O   UNL     1      -9.073  -1.470 -22.760  1.00  0.00    -0.504 OA
ATOM     43  H   UNL     1      -9.123  -2.437 -22.623  1.00  0.00     0.293 HD
ENDBRANCH  27  42
ENDBRANCH  21  22
ENDBRANCH   1  20
TORSDOF 16
ENDMDL
MODEL 4
REMARK VINA RESULT:      -8.9      1.813      5.833
REMARK SMILES O=C(/C=C/c1ccc(O)c(O)c1/C=C/c1ccc(O)c(O)c1)O[C@H](Cc1ccc(O)c(O)c1)C(=O)O
REMARK SMILES IDX 2 1 1 2 23 3 24 4 25 5 26 6 27 7 28 8 29 9 33 10 31 11 30 12
REMARK SMILES IDX 32 14 34 16 35 17 36 18 3 20 4 21 5 22 12 23 6 24 10 25 7 26
REMARK SMILES IDX 8 27 13 28 14 29 15 30 22 31 16 32 20 33 17 34 18 35 21 36
REMARK SMILES IDX 19 38 11 40 9 42
REMARK H PARENT 30 13 32 15 36 19 21 37 19 39 11 41 9 43
ROOT
ATOM      1  C   UNL     1      -7.698   0.762 -26.653  1.00  0.00     0.331 C 
ATOM      2  O   UNL     1      -7.805   1.726 -25.905  1.00  0.00    -0.247 OA
ENDROOT
BRANCH   1   3
ATOM      3  O   UNL     1      -7.364  -0.481 -26.248  1.00  0.00    -0.447 OA
BRANCH   3   4
ATOM      4  C   UNL     1      -6.353  -0.556 -25.231  1.00  0.00     0.290 C 
BRANCH   4   5
ATOM      5  C   UNL     1      -5.300  -1.581 -25.690  1.00  0.00     0.093 C 
BRANCH   5   6
ATOM      6  C   UNL     1      -4.489  -1.066 -26.861  1.00  0.00    -0.040 A 
ATOM      7  C   UNL     1      -4.236  -1.887 -27.973  1.00  0.00     0.008 A 
ATOM      8  C   UNL     1      -3.450  -1.428 -29.035  1.00  0.00     0.050 A 
ATOM      9  C   UNL     1      -2.910  -0.150 -28.977  1.00  0.00     0.157 A 
ATOM     10  C   UNL     1      -3.941   0.225 -26.825  1.00  0.00     0.054 A 
ATOM     11  C   UNL     1      -3.153   0.667 -27.877  1.00  0.00     0.157 A 
BRANCH   9  12
ATOM     12  O   UNL     1      -2.126   0.352 -29.980  1.00  0.00    -0.504 OA
ATOM     13  H   UNL     1      -1.230  -0.012 -29.872  1.00  0.00     0.293 HD
ENDBRANCH   9  12
BRANCH  11  14
ATOM     14  O   UNL     1      -2.606   1.917 -27.820  1.00  0.00    -0.504 OA
ATOM     15  H   UNL     1      -2.145   2.019 -28.676  1.00  0.00     0.293 HD
ENDBRANCH  11  14
ENDBRANCH   5   6
ENDBRANCH   4   5
BRANCH   4  16
ATOM     16  C   UNL     1      -6.926  -0.967 -23.870  1.00  0.00     0.345 C 
ATOM     17  O   UNL     1      -7.742  -0.314 -23.233  1.00  0.00    -0.248 OA
BRANCH  16  18
ATOM     18  O   UNL     1      -6.472  -2.162 -23.417  1.00  0.00    -0.478 OA
ATOM     19  H   UNL     1      -7.120  -2.654 -22.857  1.00  0.00     0.296 HD
ENDBRANCH  16  18
ENDBRANCH   4  16
ENDBRANCH   3   4
ENDBRANCH   1   3
BRANCH   1  20
ATOM     20  C   UNL     1      -7.911   0.845 -28.108  1.00  0.00     0.094 C 
ATOM     21  C   UNL     1      -7.211   0.134 -29.006  1.00  0.00     0.016 C 
BRANCH  21  22
ATOM     22  C   UNL     1      -7.399   0.289 -30.456  1.00  0.00    -0.014 A 
ATOM     23  C   UNL     1      -8.332  -0.459 -31.212  1.00  0.00     0.027 A 
ATOM     24  C   UNL     1      -6.574   1.234 -31.096  1.00  0.00     0.013 A 
ATOM     25  C   UNL     1      -8.408  -0.226 -32.596  1.00  0.00     0.165 A 
ATOM     26  C   UNL     1      -6.676   1.460 -32.469  1.00  0.00     0.051 A 
ATOM     27  C   UNL     1      -7.592   0.729 -33.204  1.00  0.00     0.158 A 
BRANCH  23  28
ATOM     28  C   UNL     1      -9.187  -1.470 -30.566  1.00  0.00     0.013 C 
ATOM     29  C   UNL     1      -8.711  -2.677 -30.219  1.00  0.00     0.009 C 
BRANCH  29  30
ATOM     30  C   UNL     1      -9.513  -3.731 -29.581  1.00  0.00    -0.022 A 
ATOM     31  C   UNL     1      -9.488  -3.839 -28.181  1.00  0.00     0.058 A 
ATOM     32  C   UNL     1     -10.255  -4.664 -30.325  1.00  0.00     0.012 A 
ATOM     33  C   UNL     1     -10.219  -4.843 -27.552  1.00  0.00     0.157 A 
ATOM     34  C   UNL     1     -10.986  -5.669 -29.686  1.00  0.00     0.051 A 
ATOM     35  C   UNL     1     -10.962  -5.747 -28.303  1.00  0.00     0.157 A 
BRANCH  33  36
ATOM     36  O   UNL     1     -10.234  -4.984 -26.192  1.00  0.00    -0.504 OA
ATOM     37  H   UNL     1     -10.102  -4.108 -25.791  1.00  0.00     0.293 HD
ENDBRANCH  33  36
BRANCH  35  38
ATOM     38  O   UNL     1     -11.676  -6.729 -27.679  1.00  0.00    -0.504 OA
ATOM     39  H   UNL     1     -11.163  -7.546 -27.838  1.00  0.00     0.293 HD
ENDBRANCH  35  38
ENDBRANCH  29  30
ENDBRANCH  23  28
BRANCH  25  40
ATOM     40  O   UNL     1      -9.254  -0.914 -33.435  1.00  0.00    -0.504 OA
ATOM     41  H   UNL     1      -8.720  -1.555 -33.937  1.00  0.00     0.293 HD
ENDBRANCH  25  40
BRANCH  27  42
ATOM     42  O   UNL     1      -7.684   0.945 -34.550  1.00  0.00    -0.504 OA
ATOM     43  H   UNL     1      -8.209   0.190 -34.884  1.00  0.00     0.293 HD
ENDBRANCH  27  42
ENDBRANCH  21  22
ENDBRANCH   1  20
TORSDOF 16
ENDMDL
MODEL 5
REMARK VINA RESULT:      -8.9      1.909      7.442
REMARK SMILES O=C(/C=C/c1ccc(O)c(O)c1/C=C/c1ccc(O)c(O)c1)O[C@H](Cc1ccc(O)c(O)c1)C(=O)O
REMARK SMILES IDX 2 1 1 2 23 3 24 4 25 5 26 6 27 7 28 8 29 9 33 10 31 11 30 12
REMARK SMILES IDX 32 14 34 16 35 17 36 18 3 20 4 21 5 22 12 23 6 24 10 25 7 26
REMARK SMILES IDX 8 27 13 28 14 29 15 30 22 31 16 32 20 33 17 34 18 35 21 36
REMARK SMILES IDX 19 38 11 40 9 42
REMARK H PARENT 30 13 32 15 36 19 21 37 19 39 11 41 9 43
ROOT
ATOM      1  C   UNL     1      -9.336  -1.531 -30.269  1.00  0.00     0.331 C 
ATOM      2  O   UNL     1      -9.101  -2.427 -31.070  1.00  0.00    -0.247 OA
ENDROOT
BRANCH   1   3
ATOM      3  O   UNL     1      -9.824  -0.319 -30.607  1.00  0.00    -0.447 OA
BRANCH   3   4
ATOM      4  C   UNL     1      -9.454   0.163 -31.909  1.00  0.00     0.290 C 
BRANCH   4   5
ATOM      5  C   UNL     1      -9.133   1.663 -31.781  1.00  0.00     0.093 C 
BRANCH   5   6
ATOM      6  C   UNL     1      -7.722   1.893 -31.280  1.00  0.00    -0.040 A 
ATOM      7  C   UNL     1      -7.494   2.389 -29.985  1.00  0.00     0.008 A 
ATOM      8  C   UNL     1      -6.194   2.645 -29.536  1.00  0.00     0.050 A 
ATOM      9  C   UNL     1      -5.123   2.412 -30.390  1.00  0.00     0.157 A 
ATOM     10  C   UNL     1      -6.627   1.657 -32.124  1.00  0.00     0.054 A 
ATOM     11  C   UNL     1      -5.342   1.925 -31.675  1.00  0.00     0.157 A 
BRANCH   9  12
ATOM     12  O   UNL     1      -3.831   2.651 -30.013  1.00  0.00    -0.504 OA
ATOM     13  H   UNL     1      -3.601   2.023 -29.307  1.00  0.00     0.293 HD
ENDBRANCH   9  12
BRANCH  11  14
ATOM     14  O   UNL     1      -4.286   1.714 -32.515  1.00  0.00    -0.504 OA
ATOM     15  H   UNL     1      -4.013   2.611 -32.793  1.00  0.00     0.293 HD
ENDBRANCH  11  14
ENDBRANCH   5   6
ENDBRANCH   4   5
BRANCH   4  16
ATOM     16  C   UNL     1     -10.564  -0.049 -32.945  1.00  0.00     0.345 C 
ATOM     17  O   UNL     1     -10.466   0.225 -34.134  1.00  0.00    -0.248 OA
BRANCH  16  18
ATOM     18  O   UNL     1     -11.691  -0.609 -32.441  1.00  0.00    -0.478 OA
ATOM     19  H   UNL     1     -11.611  -1.576 -32.251  1.00  0.00     0.296 HD
ENDBRANCH  16  18
ENDBRANCH   4  16
ENDBRANCH   3   4
ENDBRANCH   1   3
BRANCH   1  20
ATOM     20  C   UNL     1      -9.100  -1.663 -28.822  1.00  0.00     0.094 C 
ATOM     21  C   UNL     1      -8.779  -0.634 -28.022  1.00  0.00     0.016 C 
BRANCH  21  22
ATOM     22  C   UNL     1      -8.482  -0.807 -26.592  1.00  0.00    -0.014 A 
ATOM     23  C   UNL     1      -7.209  -0.576 -26.020  1.00  0.00     0.027 A 
ATOM     24  C   UNL     1      -9.548  -1.243 -25.781  1.00  0.00     0.013 A 
ATOM     25  C   UNL     1      -7.050  -0.789 -24.640  1.00  0.00     0.165 A 
ATOM     26  C   UNL     1      -9.371  -1.434 -24.410  1.00  0.00     0.051 A 
ATOM     27  C   UNL     1      -8.125  -1.204 -23.854  1.00  0.00     0.158 A 
BRANCH  23  28
ATOM     28  C   UNL     1      -6.076  -0.143 -26.856  1.00  0.00     0.013 C 
ATOM     29  C   UNL     1      -5.303  -1.027 -27.507  1.00  0.00     0.009 C 
BRANCH  29  30
ATOM     30  C   UNL     1      -4.154  -0.662 -28.348  1.00  0.00    -0.022 A 
ATOM     31  C   UNL     1      -4.158  -1.051 -29.697  1.00  0.00     0.058 A 
ATOM     32  C   UNL     1      -3.032   0.013 -27.835  1.00  0.00     0.012 A 
ATOM     33  C   UNL     1      -3.072  -0.739 -30.510  1.00  0.00     0.157 A 
ATOM     34  C   UNL     1      -1.946   0.323 -28.658  1.00  0.00     0.051 A 
ATOM     35  C   UNL     1      -1.978  -0.055 -29.990  1.00  0.00     0.157 A 
BRANCH  33  36
ATOM     36  O   UNL     1      -3.032  -1.088 -31.831  1.00  0.00    -0.504 OA
ATOM     37  H   UNL     1      -2.100  -1.184 -32.095  1.00  0.00     0.293 HD
ENDBRANCH  33  36
BRANCH  35  38
ATOM     38  O   UNL     1      -0.916   0.248 -30.794  1.00  0.00    -0.504 OA
ATOM     39  H   UNL     1      -0.747  -0.573 -31.298  1.00  0.00     0.293 HD
ENDBRANCH  35  38
ENDBRANCH  29  30
ENDBRANCH  23  28
BRANCH  25  40
ATOM     40  O   UNL     1      -5.852  -0.627 -23.982  1.00  0.00    -0.504 OA
ATOM     41  H   UNL     1      -5.410  -1.494 -23.951  1.00  0.00     0.293 HD
ENDBRANCH  25  40
BRANCH  27  42
ATOM     42  O   UNL     1      -7.952  -1.401 -22.513  1.00  0.00    -0.504 OA
ATOM     43  H   UNL     1      -8.333  -2.287 -22.345  1.00  0.00     0.293 HD
ENDBRANCH  27  42
ENDBRANCH  21  22
ENDBRANCH   1  20
TORSDOF 16
ENDMDL
MODEL 6
REMARK VINA RESULT:      -8.9      2.245      6.833
REMARK SMILES O=C(/C=C/c1ccc(O)c(O)c1/C=C/c1ccc(O)c(O)c1)O[C@H](Cc1ccc(O)c(O)c1)C(=O)O
REMARK SMILES IDX 2 1 1 2 23 3 24 4 25 5 26 6 27 7 28 8 29 9 33 10 31 11 30 12
REMARK SMILES IDX 32 14 34 16 35 17 36 18 3 20 4 21 5 22 12 23 6 24 10 25 7 26
REMARK SMILES IDX 8 27 13 28 14 29 15 30 22 31 16 32 20 33 17 34 18 35 21 36
REMARK SMILES IDX 19 38 11 40 9 42
REMARK H PARENT 30 13 32 15 36 19 21 37 19 39 11 41 9 43
ROOT
ATOM      1  C   UNL     1      -9.037  -2.001 -31.049  1.00  0.00     0.331 C 
ATOM      2  O   UNL     1      -9.352  -3.168 -31.244  1.00  0.00    -0.247 OA
ENDROOT
BRANCH   1   3
ATOM      3  O   UNL     1      -9.887  -0.957 -31.148  1.00  0.00    -0.447 OA
BRANCH   3   4
ATOM      4  C   UNL     1      -9.425   0.152 -31.935  1.00  0.00     0.290 C 
BRANCH   4   5
ATOM      5  C   UNL     1      -9.250   1.357 -30.993  1.00  0.00     0.093 C 
BRANCH   5   6
ATOM      6  C   UNL     1      -7.794   1.746 -30.845  1.00  0.00    -0.040 A 
ATOM      7  C   UNL     1      -6.875   1.482 -31.875  1.00  0.00     0.008 A 
ATOM      8  C   UNL     1      -5.521   1.800 -31.722  1.00  0.00     0.050 A 
ATOM      9  C   UNL     1      -5.088   2.373 -30.533  1.00  0.00     0.157 A 
ATOM     10  C   UNL     1      -7.338   2.332 -29.655  1.00  0.00     0.054 A 
ATOM     11  C   UNL     1      -5.992   2.632 -29.508  1.00  0.00     0.157 A 
BRANCH   9  12
ATOM     12  O   UNL     1      -3.777   2.697 -30.321  1.00  0.00    -0.504 OA
ATOM     13  H   UNL     1      -3.235   1.917 -30.531  1.00  0.00     0.293 HD
ENDBRANCH   9  12
BRANCH  11  14
ATOM     14  O   UNL     1      -5.557   3.181 -28.335  1.00  0.00    -0.504 OA
ATOM     15  H   UNL     1      -5.558   2.435 -27.703  1.00  0.00     0.293 HD
ENDBRANCH  11  14
ENDBRANCH   5   6
ENDBRANCH   4   5
BRANCH   4  16
ATOM     16  C   UNL     1     -10.398   0.508 -33.066  1.00  0.00     0.345 C 
ATOM     17  O   UNL     1     -10.754  -0.265 -33.945  1.00  0.00    -0.248 OA
BRANCH  16  18
ATOM     18  O   UNL     1     -10.875   1.776 -33.005  1.00  0.00    -0.478 OA
ATOM     19  H   UNL     1     -10.197   2.452 -32.759  1.00  0.00     0.296 HD
ENDBRANCH  16  18
ENDBRANCH   4  16
ENDBRANCH   3   4
ENDBRANCH   1   3
BRANCH   1  20
ATOM     20  C   UNL     1      -7.671  -1.585 -30.688  1.00  0.00     0.094 C 
ATOM     21  C   UNL     1      -7.173  -1.661 -29.444  1.00  0.00     0.016 C 
BRANCH  21  22
ATOM     22  C   UNL     1      -5.829  -1.173 -29.100  1.00  0.00    -0.014 A 
ATOM     23  C   UNL     1      -5.531  -0.460 -27.915  1.00  0.00     0.027 A 
ATOM     24  C   UNL     1      -4.810  -1.437 -30.036  1.00  0.00     0.013 A 
ATOM     25  C   UNL     1      -4.207  -0.037 -27.707  1.00  0.00     0.165 A 
ATOM     26  C   UNL     1      -3.499  -1.020 -29.802  1.00  0.00     0.051 A 
ATOM     27  C   UNL     1      -3.211  -0.326 -28.640  1.00  0.00     0.158 A 
BRANCH  23  28
ATOM     28  C   UNL     1      -6.587  -0.153 -26.935  1.00  0.00     0.013 C 
ATOM     29  C   UNL     1      -6.883  -0.994 -25.931  1.00  0.00     0.009 C 
BRANCH  29  30
ATOM     30  C   UNL     1      -7.929  -0.751 -24.927  1.00  0.00    -0.022 A 
ATOM     31  C   UNL     1      -9.150  -1.435 -25.050  1.00  0.00     0.058 A 
ATOM     32  C   UNL     1      -7.769   0.181 -23.886  1.00  0.00     0.012 A 
ATOM     33  C   UNL     1     -10.166  -1.206 -24.127  1.00  0.00     0.157 A 
ATOM     34  C   UNL     1      -8.796   0.405 -22.964  1.00  0.00     0.051 A 
ATOM     35  C   UNL     1      -9.985  -0.293 -23.093  1.00  0.00     0.157 A 
BRANCH  33  36
ATOM     36  O   UNL     1     -11.369  -1.853 -24.199  1.00  0.00    -0.504 OA
ATOM     37  H   UNL     1     -12.078  -1.194 -24.098  1.00  0.00     0.293 HD
ENDBRANCH  33  36
BRANCH  35  38
ATOM     38  O   UNL     1     -10.987  -0.074 -22.192  1.00  0.00    -0.504 OA
ATOM     39  H   UNL     1     -10.822  -0.721 -21.477  1.00  0.00     0.293 HD
ENDBRANCH  35  38
ENDBRANCH  29  30
ENDBRANCH  23  28
BRANCH  25  40
ATOM     40  O   UNL     1      -3.807   0.689 -26.608  1.00  0.00    -0.504 OA
ATOM     41  H   UNL     1      -3.292   0.098 -26.032  1.00  0.00     0.293 HD
ENDBRANCH  25  40
BRANCH  27  42
ATOM     42  O   UNL     1      -1.928   0.090 -28.418  1.00  0.00    -0.504 OA
ATOM     43  H   UNL     1      -1.790  -0.042 -27.459  1.00  0.00     0.293 HD
ENDBRANCH  27  42
ENDBRANCH  21  22
ENDBRANCH   1  20
TORSDOF 16
ENDMDL
MODEL 7
REMARK VINA RESULT:      -8.8      2.678      7.391
REMARK SMILES O=C(/C=C/c1ccc(O)c(O)c1/C=C/c1ccc(O)c(O)c1)O[C@H](Cc1ccc(O)c(O)c1)C(=O)O
REMARK SMILES IDX 2 1 1 2 23 3 24 4 25 5 26 6 27 7 28 8 29 9 33 10 31 11 30 12
REMARK SMILES IDX 32 14 34 16 35 17 36 18 3 20 4 21 5 22 12 23 6 24 10 25 7 26
REMARK SMILES IDX 8 27 13 28 14 29 15 30 22 31 16 32 20 33 17 34 18 35 21 36
REMARK SMILES IDX 19 38 11 40 9 42
REMARK H PARENT 30 13 32 15 36 19 21 37 19 39 11 41 9 43
ROOT
ATOM      1  C   UNL     1      -3.792  -1.196 -29.985  1.00  0.00     0.331 C 
ATOM      2  O   UNL     1      -3.432  -2.225 -30.544  1.00  0.00    -0.247 OA
ENDROOT
BRANCH   1   3
ATOM      3  O   UNL     1      -3.210  -0.691 -28.878  1.00  0.00    -0.447 OA
BRANCH   3   4
ATOM      4  C   UNL     1      -3.990   0.265 -28.143  1.00  0.00     0.290 C 
BRANCH   4   5
ATOM      5  C   UNL     1      -3.085   1.470 -27.829  1.00  0.00     0.093 C 
BRANCH   5   6
ATOM      6  C   UNL     1      -3.512   2.706 -28.594  1.00  0.00    -0.040 A 
ATOM      7  C   UNL     1      -4.495   2.624 -29.595  1.00  0.00     0.008 A 
ATOM      8  C   UNL     1      -4.857   3.755 -30.334  1.00  0.00     0.050 A 
ATOM      9  C   UNL     1      -4.227   4.966 -30.075  1.00  0.00     0.157 A 
ATOM     10  C   UNL     1      -2.893   3.939 -28.343  1.00  0.00     0.054 A 
ATOM     11  C   UNL     1      -3.250   5.053 -29.088  1.00  0.00     0.157 A 
BRANCH   9  12
ATOM     12  O   UNL     1      -4.532   6.104 -30.769  1.00  0.00    -0.504 OA
ATOM     13  H   UNL     1      -5.275   5.905 -31.364  1.00  0.00     0.293 HD
ENDBRANCH   9  12
BRANCH  11  14
ATOM     14  O   UNL     1      -2.623   6.243 -28.850  1.00  0.00    -0.504 OA
ATOM     15  H   UNL     1      -2.735   6.746 -29.681  1.00  0.00     0.293 HD
ENDBRANCH  11  14
ENDBRANCH   5   6
ENDBRANCH   4   5
BRANCH   4  16
ATOM     16  C   UNL     1      -4.554  -0.320 -26.842  1.00  0.00     0.345 C 
ATOM     17  O   UNL     1      -5.015  -1.448 -26.730  1.00  0.00    -0.248 OA
BRANCH  16  18
ATOM     18  O   UNL     1      -4.476   0.519 -25.780  1.00  0.00    -0.478 OA
ATOM     19  H   UNL     1      -3.674   1.096 -25.779  1.00  0.00     0.296 HD
ENDBRANCH  16  18
ENDBRANCH   4  16
ENDBRANCH   3   4
ENDBRANCH   1   3
BRANCH   1  20
ATOM     20  C   UNL     1      -4.924  -0.379 -30.452  1.00  0.00     0.094 C 
ATOM     21  C   UNL     1      -6.127  -0.883 -30.768  1.00  0.00     0.016 C 
BRANCH  21  22
ATOM     22  C   UNL     1      -7.219  -0.052 -31.298  1.00  0.00    -0.014 A 
ATOM     23  C   UNL     1      -8.585  -0.265 -31.001  1.00  0.00     0.027 A 
ATOM     24  C   UNL     1      -6.843   0.998 -32.158  1.00  0.00     0.013 A 
ATOM     25  C   UNL     1      -9.535   0.593 -31.580  1.00  0.00     0.165 A 
ATOM     26  C   UNL     1      -7.802   1.848 -32.711  1.00  0.00     0.051 A 
ATOM     27  C   UNL     1      -9.137   1.638 -32.415  1.00  0.00     0.158 A 
BRANCH  23  28
ATOM     28  C   UNL     1      -9.000  -1.373 -30.123  1.00  0.00     0.013 C 
ATOM     29  C   UNL     1      -9.419  -2.547 -30.621  1.00  0.00     0.009 C 
BRANCH  29  30
ATOM     30  C   UNL     1      -9.855  -3.687 -29.801  1.00  0.00    -0.022 A 
ATOM     31  C   UNL     1      -9.771  -3.580 -28.403  1.00  0.00     0.058 A 
ATOM     32  C   UNL     1     -10.298  -4.895 -30.369  1.00  0.00     0.012 A 
ATOM     33  C   UNL     1     -10.154  -4.653 -27.604  1.00  0.00     0.157 A 
ATOM     34  C   UNL     1     -10.681  -5.967 -29.559  1.00  0.00     0.051 A 
ATOM     35  C   UNL     1     -10.607  -5.835 -28.182  1.00  0.00     0.157 A 
BRANCH  33  36
ATOM     36  O   UNL     1     -10.099  -4.596 -26.239  1.00  0.00    -0.504 OA
ATOM     37  H   UNL     1     -10.307  -5.478 -25.886  1.00  0.00     0.293 HD
ENDBRANCH  33  36
BRANCH  35  38
ATOM     38  O   UNL     1     -10.981  -6.883 -27.391  1.00  0.00    -0.504 OA
ATOM     39  H   UNL     1     -11.117  -6.488 -26.507  1.00  0.00     0.293 HD
ENDBRANCH  35  38
ENDBRANCH  29  30
ENDBRANCH  23  28
BRANCH  25  40
ATOM     40  O   UNL     1     -10.891   0.462 -31.388  1.00  0.00    -0.504 OA
ATOM     41  H   UNL     1     -11.339   0.815 -32.177  1.00  0.00     0.293 HD
ENDBRANCH  25  40
BRANCH  27  42
ATOM     42  O   UNL     1     -10.075   2.465 -32.965  1.00  0.00    -0.504 OA
ATOM     43  H   UNL     1      -9.681   2.752 -33.813  1.00  0.00     0.293 HD
ENDBRANCH  27  42
ENDBRANCH  21  22
ENDBRANCH   1  20
TORSDOF 16
ENDMDL
MODEL 8
REMARK VINA RESULT:      -8.7      1.916      7.672
REMARK SMILES O=C(/C=C/c1ccc(O)c(O)c1/C=C/c1ccc(O)c(O)c1)O[C@H](Cc1ccc(O)c(O)c1)C(=O)O
REMARK SMILES IDX 2 1 1 2 23 3 24 4 25 5 26 6 27 7 28 8 29 9 33 10 31 11 30 12
REMARK SMILES IDX 32 14 34 16 35 17 36 18 3 20 4 21 5 22 12 23 6 24 10 25 7 26
REMARK SMILES IDX 8 27 13 28 14 29 15 30 22 31 16 32 20 33 17 34 18 35 21 36
REMARK SMILES IDX 19 38 11 40 9 42
REMARK H PARENT 30 13 32 15 36 19 21 37 19 39 11 41 9 43
ROOT
ATOM      1  C   UNL     1      -9.271  -2.696 -30.618  1.00  0.00     0.331 C 
ATOM      2  O   UNL     1      -8.649  -3.615 -31.135  1.00  0.00    -0.247 OA
ENDROOT
BRANCH   1   3
ATOM      3  O   UNL     1      -9.821  -1.671 -31.302  1.00  0.00    -0.447 OA
BRANCH   3   4
ATOM      4  C   UNL     1      -8.917  -0.905 -32.113  1.00  0.00     0.290 C 
BRANCH   4   5
ATOM      5  C   UNL     1      -8.236   0.135 -31.204  1.00  0.00     0.093 C 
BRANCH   5   6
ATOM      6  C   UNL     1      -6.729  -0.019 -31.208  1.00  0.00    -0.040 A 
ATOM      7  C   UNL     1      -6.111  -1.021 -30.441  1.00  0.00     0.008 A 
ATOM      8  C   UNL     1      -4.717  -1.136 -30.408  1.00  0.00     0.050 A 
ATOM      9  C   UNL     1      -3.944  -0.240 -31.136  1.00  0.00     0.157 A 
ATOM     10  C   UNL     1      -5.932   0.871 -31.942  1.00  0.00     0.054 A 
ATOM     11  C   UNL     1      -4.550   0.758 -31.893  1.00  0.00     0.157 A 
BRANCH   9  12
ATOM     12  O   UNL     1      -2.578  -0.295 -31.136  1.00  0.00    -0.504 OA
ATOM     13  H   UNL     1      -2.296  -0.811 -30.360  1.00  0.00     0.293 HD
ENDBRANCH   9  12
BRANCH  11  14
ATOM     14  O   UNL     1      -3.784   1.645 -32.593  1.00  0.00    -0.504 OA
ATOM     15  H   UNL     1      -3.648   2.389 -31.974  1.00  0.00     0.293 HD
ENDBRANCH  11  14
ENDBRANCH   5   6
ENDBRANCH   4   5
BRANCH   4  16
ATOM     16  C   UNL     1      -9.630  -0.200 -33.273  1.00  0.00     0.345 C 
ATOM     17  O   UNL     1     -10.839  -0.219 -33.461  1.00  0.00    -0.248 OA
BRANCH  16  18
ATOM     18  O   UNL     1      -8.801   0.496 -34.090  1.00  0.00    -0.478 OA
ATOM     19  H   UNL     1      -9.201   1.316 -34.468  1.00  0.00     0.296 HD
ENDBRANCH  16  18
ENDBRANCH   4  16
ENDBRANCH   3   4
ENDBRANCH   1   3
BRANCH   1  20
ATOM     20  C   UNL     1      -9.491  -2.589 -29.166  1.00  0.00     0.094 C 
ATOM     21  C   UNL     1     -10.054  -1.524 -28.573  1.00  0.00     0.016 C 
BRANCH  21  22
ATOM     22  C   UNL     1     -10.197  -1.416 -27.114  1.00  0.00    -0.014 A 
ATOM     23  C   UNL     1      -9.444  -0.525 -26.314  1.00  0.00     0.027 A 
ATOM     24  C   UNL     1     -11.137  -2.275 -26.512  1.00  0.00     0.013 A 
ATOM     25  C   UNL     1      -9.665  -0.525 -24.926  1.00  0.00     0.165 A 
ATOM     26  C   UNL     1     -11.351  -2.249 -25.134  1.00  0.00     0.051 A 
ATOM     27  C   UNL     1     -10.615  -1.373 -24.356  1.00  0.00     0.158 A 
BRANCH  23  28
ATOM     28  C   UNL     1      -8.438   0.364 -26.921  1.00  0.00     0.013 C 
ATOM     29  C   UNL     1      -7.141   0.023 -26.983  1.00  0.00     0.009 C 
BRANCH  29  30
ATOM     30  C   UNL     1      -6.089   0.868 -27.566  1.00  0.00    -0.022 A 
ATOM     31  C   UNL     1      -4.747   0.519 -27.343  1.00  0.00     0.058 A 
ATOM     32  C   UNL     1      -6.380   2.037 -28.290  1.00  0.00     0.012 A 
ATOM     33  C   UNL     1      -3.731   1.315 -27.864  1.00  0.00     0.157 A 
ATOM     34  C   UNL     1      -5.353   2.830 -28.810  1.00  0.00     0.051 A 
ATOM     35  C   UNL     1      -4.037   2.459 -28.593  1.00  0.00     0.157 A 
BRANCH  33  36
ATOM     36  O   UNL     1      -2.409   1.014 -27.681  1.00  0.00    -0.504 OA
ATOM     37  H   UNL     1      -2.108   1.443 -26.862  1.00  0.00     0.293 HD
ENDBRANCH  33  36
BRANCH  35  38
ATOM     38  O   UNL     1      -3.034   3.234 -29.101  1.00  0.00    -0.504 OA
ATOM     39  H   UNL     1      -2.979   3.997 -28.491  1.00  0.00     0.293 HD
ENDBRANCH  35  38
ENDBRANCH  29  30
ENDBRANCH  23  28
BRANCH  25  40
ATOM     40  O   UNL     1      -8.970   0.275 -24.048  1.00  0.00    -0.504 OA
ATOM     41  H   UNL     1      -8.024   0.201 -24.263  1.00  0.00     0.293 HD
ENDBRANCH  25  40
BRANCH  27  42
ATOM     42  O   UNL     1     -10.820  -1.356 -23.005  1.00  0.00    -0.504 OA
ATOM     43  H   UNL     1     -10.652  -0.428 -22.744  1.00  0.00     0.293 HD
ENDBRANCH  27  42
ENDBRANCH  21  22
ENDBRANCH   1  20
TORSDOF 16
ENDMDL
MODEL 9
REMARK VINA RESULT:      -8.7      2.348      3.387
REMARK SMILES O=C(/C=C/c1ccc(O)c(O)c1/C=C/c1ccc(O)c(O)c1)O[C@H](Cc1ccc(O)c(O)c1)C(=O)O
REMARK SMILES IDX 2 1 1 2 23 3 24 4 25 5 26 6 27 7 28 8 29 9 33 10 31 11 30 12
REMARK SMILES IDX 32 14 34 16 35 17 36 18 3 20 4 21 5 22 12 23 6 24 10 25 7 26
REMARK SMILES IDX 8 27 13 28 14 29 15 30 22 31 16 32 20 33 17 34 18 35 21 36
REMARK SMILES IDX 19 38 11 40 9 42
REMARK H PARENT 30 13 32 15 36 19 21 37 19 39 11 41 9 43
ROOT
ATOM      1  C   UNL     1      -7.247  -0.424 -24.864  1.00  0.00     0.331 C 
ATOM      2  O   UNL     1      -6.891  -0.955 -23.819  1.00  0.00    -0.247 OA
ENDROOT
BRANCH   1   3
ATOM      3  O   UNL     1      -8.503   0.005 -25.109  1.00  0.00    -0.447 OA
BRANCH   3   4
ATOM      4  C   UNL     1      -9.555  -0.904 -24.746  1.00  0.00     0.290 C 
BRANCH   4   5
ATOM      5  C   UNL     1     -10.435  -1.125 -25.990  1.00  0.00     0.093 C 
BRANCH   5   6
ATOM      6  C   UNL     1     -11.157  -2.456 -25.936  1.00  0.00    -0.040 A 
ATOM      7  C   UNL     1     -12.556  -2.507 -25.811  1.00  0.00     0.008 A 
ATOM      8  C   UNL     1     -13.220  -3.734 -25.716  1.00  0.00     0.050 A 
ATOM      9  C   UNL     1     -12.480  -4.910 -25.737  1.00  0.00     0.157 A 
ATOM     10  C   UNL     1     -10.429  -3.654 -25.962  1.00  0.00     0.054 A 
ATOM     11  C   UNL     1     -11.094  -4.866 -25.855  1.00  0.00     0.157 A 
BRANCH   9  12
ATOM     12  O   UNL     1     -13.071  -6.139 -25.638  1.00  0.00    -0.504 OA
ATOM     13  H   UNL     1     -13.473  -6.211 -24.755  1.00  0.00     0.293 HD
ENDBRANCH   9  12
BRANCH  11  14
ATOM     14  O   UNL     1     -10.372  -6.025 -25.858  1.00  0.00    -0.504 OA
ATOM     15  H   UNL     1     -10.231  -6.220 -26.806  1.00  0.00     0.293 HD
ENDBRANCH  11  14
ENDBRANCH   5   6
ENDBRANCH   4   5
BRANCH   4  16
ATOM     16  C   UNL     1     -10.408  -0.374 -23.588  1.00  0.00     0.345 C 
ATOM     17  O   UNL     1     -10.647   0.808 -23.384  1.00  0.00    -0.248 OA
BRANCH  16  18
ATOM     18  O   UNL     1     -10.922  -1.345 -22.792  1.00  0.00    -0.478 OA
ATOM     19  H   UNL     1     -10.241  -1.875 -22.311  1.00  0.00     0.296 HD
ENDBRANCH  16  18
ENDBRANCH   4  16
ENDBRANCH   3   4
ENDBRANCH   1   3
BRANCH   1  20
ATOM     20  C   UNL     1      -6.340  -0.194 -26.001  1.00  0.00     0.094 C 
ATOM     21  C   UNL     1      -5.288  -0.977 -26.285  1.00  0.00     0.016 C 
BRANCH  21  22
ATOM     22  C   UNL     1      -4.358  -0.683 -27.387  1.00  0.00    -0.014 A 
ATOM     23  C   UNL     1      -4.464  -1.251 -28.678  1.00  0.00     0.027 A 
ATOM     24  C   UNL     1      -3.307   0.208 -27.096  1.00  0.00     0.013 A 
ATOM     25  C   UNL     1      -3.505  -0.898 -29.642  1.00  0.00     0.165 A 
ATOM     26  C   UNL     1      -2.374   0.556 -28.072  1.00  0.00     0.051 A 
ATOM     27  C   UNL     1      -2.483   0.001 -29.335  1.00  0.00     0.158 A 
BRANCH  23  28
ATOM     28  C   UNL     1      -5.542  -2.204 -28.994  1.00  0.00     0.013 C 
ATOM     29  C   UNL     1      -6.785  -1.790 -29.286  1.00  0.00     0.009 C 
BRANCH  29  30
ATOM     30  C   UNL     1      -7.906  -2.688 -29.601  1.00  0.00    -0.022 A 
ATOM     31  C   UNL     1      -8.021  -3.894 -28.890  1.00  0.00     0.058 A 
ATOM     32  C   UNL     1      -8.829  -2.406 -30.624  1.00  0.00     0.012 A 
ATOM     33  C   UNL     1      -9.058  -4.773 -29.186  1.00  0.00     0.157 A 
ATOM     34  C   UNL     1      -9.867  -3.296 -30.913  1.00  0.00     0.051 A 
ATOM     35  C   UNL     1      -9.974  -4.471 -30.189  1.00  0.00     0.157 A 
BRANCH  33  36
ATOM     36  O   UNL     1      -9.218  -5.955 -28.517  1.00  0.00    -0.504 OA
ATOM     37  H   UNL     1      -9.454  -6.643 -29.162  1.00  0.00     0.293 HD
ENDBRANCH  33  36
BRANCH  35  38
ATOM     38  O   UNL     1     -10.988  -5.340 -30.472  1.00  0.00    -0.504 OA
ATOM     39  H   UNL     1     -10.842  -5.594 -31.405  1.00  0.00     0.293 HD
ENDBRANCH  35  38
ENDBRANCH  29  30
ENDBRANCH  23  28
BRANCH  25  40
ATOM     40  O   UNL     1      -3.490  -1.411 -30.918  1.00  0.00    -0.504 OA
ATOM     41  H   UNL     1      -2.563  -1.589 -31.157  1.00  0.00     0.293 HD
ENDBRANCH  25  40
BRANCH  27  42
ATOM     42  O   UNL     1      -1.562   0.336 -30.287  1.00  0.00    -0.504 OA
ATOM     43  H   UNL     1      -1.637  -0.371 -30.960  1.00  0.00     0.293 HD
ENDBRANCH  27  42
ENDBRANCH  21  22
ENDBRANCH   1  20
TORSDOF 16
ENDMDL
MODEL 10
REMARK VINA RESULT:      -8.6      1.496      6.362
REMARK SMILES O=C(/C=C/c1ccc(O)c(O)c1/C=C/c1ccc(O)c(O)c1)O[C@H](Cc1ccc(O)c(O)c1)C(=O)O
REMARK SMILES IDX 2 1 1 2 23 3 24 4 25 5 26 6 27 7 28 8 29 9 33 10 31 11 30 12
REMARK SMILES IDX 32 14 34 16 35 17 36 18 3 20 4 21 5 22 12 23 6 24 10 25 7 26
REMARK SMILES IDX 8 27 13 28 14 29 15 30 22 31 16 32 20 33 17 34 18 35 21 36
REMARK SMILES IDX 19 38 11 40 9 42
REMARK H PARENT 30 13 32 15 36 19 21 37 19 39 11 41 9 43
ROOT
ATOM      1  C   UNL     1      -4.410  -1.310 -30.019  1.00  0.00     0.331 C 
ATOM      2  O   UNL     1      -3.546  -2.029 -30.505  1.00  0.00    -0.247 OA
ENDROOT
BRANCH   1   3
ATOM      3  O   UNL     1      -4.475  -0.978 -28.713  1.00  0.00    -0.447 OA
BRANCH   3   4
ATOM      4  C   UNL     1      -3.355  -0.238 -28.200  1.00  0.00     0.290 C 
BRANCH   4   5
ATOM      5  C   UNL     1      -3.794   0.425 -26.881  1.00  0.00     0.093 C 
BRANCH   5   6
ATOM      6  C   UNL     1      -5.134  -0.099 -26.410  1.00  0.00    -0.040 A 
ATOM      7  C   UNL     1      -6.324   0.319 -27.029  1.00  0.00     0.008 A 
ATOM      8  C   UNL     1      -7.566  -0.128 -26.565  1.00  0.00     0.050 A 
ATOM      9  C   UNL     1      -7.614  -0.989 -25.476  1.00  0.00     0.157 A 
ATOM     10  C   UNL     1      -5.204  -0.974 -25.315  1.00  0.00     0.054 A 
ATOM     11  C   UNL     1      -6.439  -1.404 -24.855  1.00  0.00     0.157 A 
BRANCH   9  12
ATOM     12  O   UNL     1      -8.797  -1.454 -24.971  1.00  0.00    -0.504 OA
ATOM     13  H   UNL     1      -9.298  -0.693 -24.628  1.00  0.00     0.293 HD
ENDBRANCH   9  12
BRANCH  11  14
ATOM     14  O   UNL     1      -6.495  -2.237 -23.775  1.00  0.00    -0.504 OA
ATOM     15  H   UNL     1      -6.703  -1.646 -23.023  1.00  0.00     0.293 HD
ENDBRANCH  11  14
ENDBRANCH   5   6
ENDBRANCH   4   5
BRANCH   4  16
ATOM     16  C   UNL     1      -2.863   0.829 -29.184  1.00  0.00     0.345 C 
ATOM     17  O   UNL     1      -3.342   1.950 -29.292  1.00  0.00    -0.248 OA
BRANCH  16  18
ATOM     18  O   UNL     1      -1.801   0.441 -29.934  1.00  0.00    -0.478 OA
ATOM     19  H   UNL     1      -1.871  -0.479 -30.286  1.00  0.00     0.296 HD
ENDBRANCH  16  18
ENDBRANCH   4  16
ENDBRANCH   3   4
ENDBRANCH   1   3
BRANCH   1  20
ATOM     20  C   UNL     1      -5.504  -0.721 -30.808  1.00  0.00     0.094 C 
ATOM     21  C   UNL     1      -6.454   0.073 -30.288  1.00  0.00     0.016 C 
BRANCH  21  22
ATOM     22  C   UNL     1      -7.575   0.591 -31.087  1.00  0.00    -0.014 A 
ATOM     23  C   UNL     1      -8.902   0.110 -30.985  1.00  0.00     0.027 A 
ATOM     24  C   UNL     1      -7.268   1.613 -32.006  1.00  0.00     0.013 A 
ATOM     25  C   UNL     1      -9.883   0.681 -31.813  1.00  0.00     0.165 A 
ATOM     26  C   UNL     1      -8.261   2.175 -32.809  1.00  0.00     0.051 A 
ATOM     27  C   UNL     1      -9.557   1.705 -32.703  1.00  0.00     0.158 A 
BRANCH  23  28
ATOM     28  C   UNL     1      -9.239  -0.975 -30.047  1.00  0.00     0.013 C 
ATOM     29  C   UNL     1      -9.241  -2.261 -30.430  1.00  0.00     0.009 C 
BRANCH  29  30
ATOM     30  C   UNL     1      -9.576  -3.389 -29.547  1.00  0.00    -0.022 A 
ATOM     31  C   UNL     1      -9.709  -3.147 -28.170  1.00  0.00     0.058 A 
ATOM     32  C   UNL     1      -9.713  -4.703 -30.027  1.00  0.00     0.012 A 
ATOM     33  C   UNL     1     -10.002  -4.200 -27.309  1.00  0.00     0.157 A 
ATOM     34  C   UNL     1     -10.008  -5.755 -29.155  1.00  0.00     0.051 A 
ATOM     35  C   UNL     1     -10.152  -5.492 -27.803  1.00  0.00     0.157 A 
BRANCH  33  36
ATOM     36  O   UNL     1     -10.149  -4.016 -25.962  1.00  0.00    -0.504 OA
ATOM     37  H   UNL     1     -10.309  -4.882 -25.550  1.00  0.00     0.293 HD
ENDBRANCH  33  36
BRANCH  35  38
ATOM     38  O   UNL     1     -10.440  -6.520 -26.951  1.00  0.00    -0.504 OA
ATOM     39  H   UNL     1     -10.958  -7.149 -27.491  1.00  0.00     0.293 HD
ENDBRANCH  35  38
ENDBRANCH  29  30
ENDBRANCH  23  28
BRANCH  25  40
ATOM     40  O   UNL     1     -11.197   0.273 -31.822  1.00  0.00    -0.504 OA
ATOM     41  H   UNL     1     -11.679   0.832 -32.457  1.00  0.00     0.293 HD
ENDBRANCH  25  40
BRANCH  27  42
ATOM     42  O   UNL     1     -10.526   2.250 -33.497  1.00  0.00    -0.504 OA
ATOM     43  H   UNL     1     -10.840   1.505 -34.048  1.00  0.00     0.293 HD
ENDBRANCH  27  42
ENDBRANCH  21  22
ENDBRANCH   1  20
TORSDOF 16
ENDMDL
