MODEL 1
REMARK VINA RESULT:      -5.6      0.000      0.000
REMARK SMILES C/C=C/[S@@](=O)C[C@H]([NH3+])C(=O)[O-]
REMARK SMILES IDX 6 1 4 2 5 3 3 4 2 5 1 6 7 7 9 8 10 9 11 10 8 11
REMARK H PARENT 8 12 8 13 8 14
ROOT
ATOM      1  C   UNL     1      -3.892 -10.504 -26.940  1.00  0.00     0.181 C 
ENDROOT
BRANCH   1   2
ATOM      2  S   UNL     1      -3.287  -8.835 -27.357  1.00  0.00     0.052 S 
ATOM      3  O   UNL     1      -3.032  -8.864 -28.837  1.00  0.00    -0.255 OA
BRANCH   2   4
ATOM      4  C   UNL     1      -1.657  -8.957 -26.634  1.00  0.00     0.070 C 
ATOM      5  C   UNL     1      -1.118 -10.177 -26.488  1.00  0.00    -0.021 C 
ATOM      6  C   UNL     1       0.209 -10.430 -25.850  1.00  0.00     0.036 C 
ENDBRANCH   2   4
ENDBRANCH   1   2
BRANCH   1   7
ATOM      7  C   UNL     1      -5.377 -10.719 -27.154  1.00  0.00     0.240 C 
BRANCH   7   8
ATOM      8  C   UNL     1      -6.019 -11.242 -25.844  1.00  0.00     0.100 C 
ATOM      9  O   UNL     1      -6.202 -10.261 -25.051  1.00  0.00    -0.544 OA
ATOM     10  O   UNL     1      -6.327 -12.449 -25.793  1.00  0.00    -0.544 OA
ENDBRANCH   7   8
BRANCH   7  11
ATOM     11  N   UNL     1      -6.028  -9.364 -27.475  1.00  0.00    -0.350 N 
ATOM     12  H   UNL     1      -5.264  -8.712 -27.148  1.00  0.00     0.345 HD
ATOM     13  H   UNL     1      -6.807  -9.161 -26.844  1.00  0.00     0.345 HD
ATOM     14  H   UNL     1      -6.231  -9.168 -28.454  1.00  0.00     0.345 HD
ENDBRANCH   7  11
ENDBRANCH   1   7
TORSDOF 5
ENDMDL
MODEL 2
REMARK VINA RESULT:      -5.3      3.176      4.893
REMARK SMILES C/C=C/[S@@](=O)C[C@H]([NH3+])C(=O)[O-]
REMARK SMILES IDX 6 1 4 2 5 3 3 4 2 5 1 6 7 7 9 8 10 9 11 10 8 11
REMARK H PARENT 8 12 8 13 8 14
ROOT
ATOM      1  C   UNL     1      -1.592 -10.631 -27.696  1.00  0.00     0.181 C 
ENDROOT
BRANCH   1   2
ATOM      2  S   UNL     1      -2.987  -9.600 -28.260  1.00  0.00     0.052 S 
ATOM      3  O   UNL     1      -2.498  -8.182 -28.157  1.00  0.00    -0.255 OA
BRANCH   2   4
ATOM      4  C   UNL     1      -4.050  -9.796 -26.836  1.00  0.00     0.070 C 
ATOM      5  C   UNL     1      -4.968 -10.773 -26.859  1.00  0.00    -0.021 C 
ATOM      6  C   UNL     1      -5.956 -11.014 -25.765  1.00  0.00     0.036 C 
ENDBRANCH   2   4
ENDBRANCH   1   2
BRANCH   1   7
ATOM      7  C   UNL     1      -0.698  -9.984 -26.657  1.00  0.00     0.240 C 
BRANCH   7   8
ATOM      8  C   UNL     1       0.262 -11.048 -26.064  1.00  0.00     0.100 C 
ATOM      9  O   UNL     1       0.871 -10.545 -25.063  1.00  0.00    -0.544 OA
ATOM     10  O   UNL     1       0.235 -12.191 -26.560  1.00  0.00    -0.544 OA
ENDBRANCH   7   8
BRANCH   7  11
ATOM     11  N   UNL     1       0.168  -8.918 -27.347  1.00  0.00    -0.350 N 
ATOM     12  H   UNL     1      -0.574  -8.410 -27.900  1.00  0.00     0.345 HD
ATOM     13  H   UNL     1       0.768  -9.328 -28.067  1.00  0.00     0.345 HD
ATOM     14  H   UNL     1       0.648  -8.250 -26.746  1.00  0.00     0.345 HD
ENDBRANCH   7  11
ENDBRANCH   1   7
TORSDOF 5
ENDMDL
MODEL 3
REMARK VINA RESULT:      -4.8      2.122      2.578
REMARK SMILES C/C=C/[S@@](=O)C[C@H]([NH3+])C(=O)[O-]
REMARK SMILES IDX 6 1 4 2 5 3 3 4 2 5 1 6 7 7 9 8 10 9 11 10 8 11
REMARK H PARENT 8 12 8 13 8 14
ROOT
ATOM      1  C   UNL     1      -2.508 -10.223 -27.667  1.00  0.00     0.181 C 
ENDROOT
BRANCH   1   2
ATOM      2  S   UNL     1      -1.135  -9.689 -26.592  1.00  0.00     0.052 S 
ATOM      3  O   UNL     1      -0.388  -8.655 -27.387  1.00  0.00    -0.255 OA
BRANCH   2   4
ATOM      4  C   UNL     1      -0.116 -11.153 -26.721  1.00  0.00     0.070 C 
ATOM      5  C   UNL     1       0.270 -11.760 -25.589  1.00  0.00    -0.021 C 
ATOM      6  C   UNL     1       1.165 -12.954 -25.547  1.00  0.00     0.036 C 
ENDBRANCH   2   4
ENDBRANCH   1   2
BRANCH   1   7
ATOM      7  C   UNL     1      -3.707  -9.297 -27.679  1.00  0.00     0.240 C 
BRANCH   7   8
ATOM      8  C   UNL     1      -4.930 -10.023 -27.062  1.00  0.00     0.100 C 
ATOM      9  O   UNL     1      -4.610 -11.231 -26.806  1.00  0.00    -0.544 OA
ATOM     10  O   UNL     1      -5.952  -9.346 -26.836  1.00  0.00    -0.544 OA
ENDBRANCH   7   8
BRANCH   7  11
ATOM     11  N   UNL     1      -3.399  -8.081 -26.790  1.00  0.00    -0.350 N 
ATOM     12  H   UNL     1      -2.441  -7.827 -27.154  1.00  0.00     0.345 HD
ATOM     13  H   UNL     1      -3.224  -8.357 -25.821  1.00  0.00     0.345 HD
ATOM     14  H   UNL     1      -4.012  -7.272 -26.882  1.00  0.00     0.345 HD
ENDBRANCH   7  11
ENDBRANCH   1   7
TORSDOF 5
ENDMDL
MODEL 4
REMARK VINA RESULT:      -4.7     11.173     12.190
REMARK SMILES C/C=C/[S@@](=O)C[C@H]([NH3+])C(=O)[O-]
REMARK SMILES IDX 6 1 4 2 5 3 3 4 2 5 1 6 7 7 9 8 10 9 11 10 8 11
REMARK H PARENT 8 12 8 13 8 14
ROOT
ATOM      1  C   UNL     1      -8.904  -1.277 -32.424  1.00  0.00     0.181 C 
ENDROOT
BRANCH   1   2
ATOM      2  S   UNL     1      -7.933  -0.800 -30.956  1.00  0.00     0.052 S 
ATOM      3  O   UNL     1      -6.504  -0.769 -31.420  1.00  0.00    -0.255 OA
BRANCH   2   4
ATOM      4  C   UNL     1      -8.059  -2.335 -30.048  1.00  0.00     0.070 C 
ATOM      5  C   UNL     1      -8.642  -3.382 -30.650  1.00  0.00    -0.021 C 
ATOM      6  C   UNL     1      -8.864  -4.704 -29.991  1.00  0.00     0.036 C 
ENDBRANCH   2   4
ENDBRANCH   1   2
BRANCH   1   7
ATOM      7  C   UNL     1      -9.304  -0.127 -33.327  1.00  0.00     0.240 C 
BRANCH   7   8
ATOM      8  C   UNL     1     -10.741   0.334 -32.973  1.00  0.00     0.100 C 
ATOM      9  O   UNL     1     -10.795   1.607 -33.030  1.00  0.00    -0.544 OA
ATOM     10  O   UNL     1     -11.602  -0.548 -32.785  1.00  0.00    -0.544 OA
ENDBRANCH   7   8
BRANCH   7  11
ATOM     11  N   UNL     1      -8.363   1.058 -33.060  1.00  0.00    -0.350 N 
ATOM     12  H   UNL     1      -7.629   0.580 -32.471  1.00  0.00     0.345 HD
ATOM     13  H   UNL     1      -8.783   1.737 -32.421  1.00  0.00     0.345 HD
ATOM     14  H   UNL     1      -7.911   1.482 -33.869  1.00  0.00     0.345 HD
ENDBRANCH   7  11
ENDBRANCH   1   7
TORSDOF 5
ENDMDL
MODEL 5
REMARK VINA RESULT:      -4.7     17.591     19.250
REMARK SMILES C/C=C/[S@@](=O)C[C@H]([NH3+])C(=O)[O-]
REMARK SMILES IDX 6 1 4 2 5 3 3 4 2 5 1 6 7 7 9 8 10 9 11 10 8 11
REMARK H PARENT 8 12 8 13 8 14
ROOT
ATOM      1  C   UNL     1       9.310  -0.542 -16.998  1.00  0.00     0.181 C 
ENDROOT
BRANCH   1   2
ATOM      2  S   UNL     1       7.584  -0.150 -17.436  1.00  0.00     0.052 S 
ATOM      3  O   UNL     1       6.743  -1.033 -16.558  1.00  0.00    -0.255 OA
BRANCH   2   4
ATOM      4  C   UNL     1       7.530  -0.951 -19.033  1.00  0.00     0.070 C 
ATOM      5  C   UNL     1       6.472  -1.723 -19.321  1.00  0.00    -0.021 C 
ATOM      6  C   UNL     1       6.324  -2.494 -20.591  1.00  0.00     0.036 C 
ENDBRANCH   2   4
ENDBRANCH   1   2
BRANCH   1   7
ATOM      7  C   UNL     1       9.640  -0.418 -15.524  1.00  0.00     0.240 C 
BRANCH   7   8
ATOM      8  C   UNL     1      11.117   0.023 -15.358  1.00  0.00     0.100 C 
ATOM      9  O   UNL     1      11.727  -0.834 -14.637  1.00  0.00    -0.544 OA
ATOM     10  O   UNL     1      11.494   1.032 -15.986  1.00  0.00    -0.544 OA
ENDBRANCH   7   8
BRANCH   7  11
ATOM     11  N   UNL     1       8.761   0.686 -14.915  1.00  0.00    -0.350 N 
ATOM     12  H   UNL     1       8.629   0.299 -13.941  1.00  0.00     0.345 HD
ATOM     13  H   UNL     1       7.817   0.677 -15.309  1.00  0.00     0.345 HD
ATOM     14  H   UNL     1       9.168   1.618 -14.847  1.00  0.00     0.345 HD
ENDBRANCH   7  11
ENDBRANCH   1   7
TORSDOF 5
ENDMDL
MODEL 6
REMARK VINA RESULT:      -4.6     11.841     12.841
REMARK SMILES C/C=C/[S@@](=O)C[C@H]([NH3+])C(=O)[O-]
REMARK SMILES IDX 6 1 4 2 5 3 3 4 2 5 1 6 7 7 9 8 10 9 11 10 8 11
REMARK H PARENT 8 12 8 13 8 14
ROOT
ATOM      1  C   UNL     1      -8.875  -1.011 -32.137  1.00  0.00     0.181 C 
ENDROOT
BRANCH   1   2
ATOM      2  S   UNL     1      -7.582  -0.053 -31.279  1.00  0.00     0.052 S 
ATOM      3  O   UNL     1      -6.403  -0.979 -31.180  1.00  0.00    -0.255 OA
BRANCH   2   4
ATOM      4  C   UNL     1      -8.288  -0.073 -29.636  1.00  0.00     0.070 C 
ATOM      5  C   UNL     1      -9.509  -0.603 -29.477  1.00  0.00    -0.021 C 
ATOM      6  C   UNL     1     -10.240  -0.635 -28.175  1.00  0.00     0.036 C 
ENDBRANCH   2   4
ENDBRANCH   1   2
BRANCH   1   7
ATOM      7  C   UNL     1      -9.471  -0.334 -33.355  1.00  0.00     0.240 C 
BRANCH   7   8
ATOM      8  C   UNL     1     -10.837   0.296 -32.982  1.00  0.00     0.100 C 
ATOM      9  O   UNL     1     -11.658  -0.635 -32.691  1.00  0.00    -0.544 OA
ATOM     10  O   UNL     1     -10.907   1.540 -32.934  1.00  0.00    -0.544 OA
ENDBRANCH   7   8
BRANCH   7  11
ATOM     11  N   UNL     1      -8.540   0.811 -33.786  1.00  0.00    -0.350 N 
ATOM     12  H   UNL     1      -7.612   0.307 -33.773  1.00  0.00     0.345 HD
ATOM     13  H   UNL     1      -8.442   1.515 -33.050  1.00  0.00     0.345 HD
ATOM     14  H   UNL     1      -8.688   1.205 -34.714  1.00  0.00     0.345 HD
ENDBRANCH   7  11
ENDBRANCH   1   7
TORSDOF 5
ENDMDL
MODEL 7
REMARK VINA RESULT:      -4.5     11.010     12.503
REMARK SMILES C/C=C/[S@@](=O)C[C@H]([NH3+])C(=O)[O-]
REMARK SMILES IDX 6 1 4 2 5 3 3 4 2 5 1 6 7 7 9 8 10 9 11 10 8 11
REMARK H PARENT 8 12 8 13 8 14
ROOT
ATOM      1  C   UNL     1      -5.871  -0.249 -30.816  1.00  0.00     0.181 C 
ENDROOT
BRANCH   1   2
ATOM      2  S   UNL     1      -6.473   0.924 -32.076  1.00  0.00     0.052 S 
ATOM      3  O   UNL     1      -6.844   2.166 -31.317  1.00  0.00    -0.255 OA
BRANCH   2   4
ATOM      4  C   UNL     1      -8.044   0.147 -32.429  1.00  0.00     0.070 C 
ATOM      5  C   UNL     1      -8.789   0.646 -33.426  1.00  0.00    -0.021 C 
ATOM      6  C   UNL     1     -10.143   0.133 -33.793  1.00  0.00     0.036 C 
ENDBRANCH   2   4
ENDBRANCH   1   2
BRANCH   1   7
ATOM      7  C   UNL     1      -4.577   0.152 -30.136  1.00  0.00     0.240 C 
BRANCH   7   8
ATOM      8  C   UNL     1      -3.554  -1.008 -30.244  1.00  0.00     0.100 C 
ATOM      9  O   UNL     1      -3.202  -1.139 -31.462  1.00  0.00    -0.544 OA
ATOM     10  O   UNL     1      -3.179  -1.548 -29.185  1.00  0.00    -0.544 OA
ENDBRANCH   7   8
BRANCH   7  11
ATOM     11  N   UNL     1      -3.984   1.359 -30.880  1.00  0.00    -0.350 N 
ATOM     12  H   UNL     1      -3.042   0.964 -31.147  1.00  0.00     0.345 HD
ATOM     13  H   UNL     1      -3.754   2.122 -30.239  1.00  0.00     0.345 HD
ATOM     14  H   UNL     1      -4.465   1.664 -31.725  1.00  0.00     0.345 HD
ENDBRANCH   7  11
ENDBRANCH   1   7
TORSDOF 5
ENDMDL
MODEL 8
REMARK VINA RESULT:      -4.4     12.647     13.416
REMARK SMILES C/C=C/[S@@](=O)C[C@H]([NH3+])C(=O)[O-]
REMARK SMILES IDX 6 1 4 2 5 3 3 4 2 5 1 6 7 7 9 8 10 9 11 10 8 11
REMARK H PARENT 8 12 8 13 8 14
ROOT
ATOM      1  C   UNL     1      -8.584   1.099 -31.771  1.00  0.00     0.181 C 
ENDROOT
BRANCH   1   2
ATOM      2  S   UNL     1      -6.795   0.767 -31.898  1.00  0.00     0.052 S 
ATOM      3  O   UNL     1      -6.635  -0.684 -31.540  1.00  0.00    -0.255 OA
BRANCH   2   4
ATOM      4  C   UNL     1      -6.262   1.637 -30.429  1.00  0.00     0.070 C 
ATOM      5  C   UNL     1      -5.805   2.890 -30.565  1.00  0.00    -0.021 C 
ATOM      6  C   UNL     1      -5.276   3.711 -29.435  1.00  0.00     0.036 C 
ENDBRANCH   2   4
ENDBRANCH   1   2
BRANCH   1   7
ATOM      7  C   UNL     1      -9.300   1.254 -33.097  1.00  0.00     0.240 C 
BRANCH   7   8
ATOM      8  C   UNL     1     -10.111  -0.032 -33.403  1.00  0.00     0.100 C 
ATOM      9  O   UNL     1      -9.313  -0.939 -33.811  1.00  0.00    -0.544 OA
ATOM     10  O   UNL     1     -11.329  -0.024 -33.137  1.00  0.00    -0.544 OA
ENDBRANCH   7   8
BRANCH   7  11
ATOM     11  N   UNL     1     -10.303   2.413 -32.981  1.00  0.00    -0.350 N 
ATOM     12  H   UNL     1     -11.173   1.940 -33.350  1.00  0.00     0.345 HD
ATOM     13  H   UNL     1     -10.115   3.145 -33.670  1.00  0.00     0.345 HD
ATOM     14  H   UNL     1     -10.493   2.770 -32.046  1.00  0.00     0.345 HD
ENDBRANCH   7  11
ENDBRANCH   1   7
TORSDOF 5
ENDMDL
MODEL 9
REMARK VINA RESULT:      -4.4     12.111     12.785
REMARK SMILES C/C=C/[S@@](=O)C[C@H]([NH3+])C(=O)[O-]
REMARK SMILES IDX 6 1 4 2 5 3 3 4 2 5 1 6 7 7 9 8 10 9 11 10 8 11
REMARK H PARENT 8 12 8 13 8 14
ROOT
ATOM      1  C   UNL     1      -8.695   1.242 -31.370  1.00  0.00     0.181 C 
ENDROOT
BRANCH   1   2
ATOM      2  S   UNL     1      -6.954   1.534 -31.827  1.00  0.00     0.052 S 
ATOM      3  O   UNL     1      -6.927   1.500 -33.329  1.00  0.00    -0.255 OA
BRANCH   2   4
ATOM      4  C   UNL     1      -6.287  -0.054 -31.347  1.00  0.00     0.070 C 
ATOM      5  C   UNL     1      -6.899  -0.727 -30.361  1.00  0.00    -0.021 C 
ATOM      6  C   UNL     1      -6.419  -2.035 -29.822  1.00  0.00     0.036 C 
ENDBRANCH   2   4
ENDBRANCH   1   2
BRANCH   1   7
ATOM      7  C   UNL     1      -9.617   0.927 -32.532  1.00  0.00     0.240 C 
BRANCH   7   8
ATOM      8  C   UNL     1     -10.831   0.108 -32.023  1.00  0.00     0.100 C 
ATOM      9  O   UNL     1     -10.912   0.230 -30.756  1.00  0.00    -0.544 OA
ATOM     10  O   UNL     1     -11.559  -0.438 -32.875  1.00  0.00    -0.544 OA
ENDBRANCH   7   8
BRANCH   7  11
ATOM     11  N   UNL     1     -10.159   2.247 -33.102  1.00  0.00    -0.350 N 
ATOM     12  H   UNL     1      -9.352   2.522 -33.726  1.00  0.00     0.345 HD
ATOM     13  H   UNL     1     -10.179   2.984 -32.393  1.00  0.00     0.345 HD
ATOM     14  H   UNL     1     -11.008   2.195 -33.664  1.00  0.00     0.345 HD
ENDBRANCH   7  11
ENDBRANCH   1   7
TORSDOF 5
ENDMDL
MODEL 10
REMARK VINA RESULT:      -4.3     10.922     11.688
REMARK SMILES C/C=C/[S@@](=O)C[C@H]([NH3+])C(=O)[O-]
REMARK SMILES IDX 6 1 4 2 5 3 3 4 2 5 1 6 7 7 9 8 10 9 11 10 8 11
REMARK H PARENT 8 12 8 13 8 14
ROOT
ATOM      1  C   UNL     1      -8.454  -1.097 -31.395  1.00  0.00     0.181 C 
ENDROOT
BRANCH   1   2
ATOM      2  S   UNL     1      -7.139  -0.089 -30.632  1.00  0.00     0.052 S 
ATOM      3  O   UNL     1      -5.952  -0.233 -31.542  1.00  0.00    -0.255 OA
BRANCH   2   4
ATOM      4  C   UNL     1      -6.758  -1.157 -29.250  1.00  0.00     0.070 C 
ATOM      5  C   UNL     1      -5.491  -1.198 -28.811  1.00  0.00    -0.021 C 
ATOM      6  C   UNL     1      -5.021  -2.085 -27.705  1.00  0.00     0.036 C 
ENDBRANCH   2   4
ENDBRANCH   1   2
BRANCH   1   7
ATOM      7  C   UNL     1      -9.081  -0.496 -32.637  1.00  0.00     0.240 C 
BRANCH   7   8
ATOM      8  C   UNL     1     -10.524  -0.028 -32.315  1.00  0.00     0.100 C 
ATOM      9  O   UNL     1     -11.264  -0.232 -33.333  1.00  0.00    -0.544 OA
ATOM     10  O   UNL     1     -10.758   0.369 -31.156  1.00  0.00    -0.544 OA
ENDBRANCH   7   8
BRANCH   7  11
ATOM     11  N   UNL     1      -8.274   0.747 -33.043  1.00  0.00    -0.350 N 
ATOM     12  H   UNL     1      -8.851   1.499 -32.577  1.00  0.00     0.345 HD
ATOM     13  H   UNL     1      -8.371   0.951 -34.040  1.00  0.00     0.345 HD
ATOM     14  H   UNL     1      -7.316   0.809 -32.703  1.00  0.00     0.345 HD
ENDBRANCH   7  11
ENDBRANCH   1   7
TORSDOF 5
ENDMDL
