MODEL 1
REMARK VINA RESULT:      -6.9      0.000      0.000
REMARK SMILES O=C/C=C/c1ccc(O)cc1
REMARK SMILES IDX 6 1 7 2 8 3 10 4 11 5 5 6 4 7 3 8 2 9 1 10 9 11
REMARK H PARENT 9 12
ROOT
ATOM      1  C   UNL     1       6.184  -1.861 -17.757  1.00  0.00     0.012 A 
ATOM      2  C   UNL     1       6.627  -1.187 -16.615  1.00  0.00     0.047 A 
ATOM      3  C   UNL     1       7.681  -0.285 -16.718  1.00  0.00     0.115 A 
ATOM      4  C   UNL     1       8.292  -0.045 -17.943  1.00  0.00     0.047 A 
ATOM      5  C   UNL     1       7.847  -0.719 -19.082  1.00  0.00     0.012 A 
ATOM      6  C   UNL     1       6.797  -1.645 -19.001  1.00  0.00    -0.025 A 
ENDROOT
BRANCH   6   7
ATOM      7  C   UNL     1       6.341  -2.308 -20.231  1.00  0.00     0.011 C 
ATOM      8  C   UNL     1       5.633  -1.693 -21.188  1.00  0.00     0.044 C 
BRANCH   8   9
ATOM      9  C   UNL     1       5.209  -2.440 -22.388  1.00  0.00     0.252 C 
ATOM     10  O   UNL     1       5.184  -1.911 -23.491  1.00  0.00    -0.299 OA
ENDBRANCH   8   9
ENDBRANCH   6   7
BRANCH   3  11
ATOM     11  O   UNL     1       8.145   0.395 -15.632  1.00  0.00    -0.508 OA
ATOM     12  H   UNL     1       9.099   0.542 -15.742  1.00  0.00     0.293 HD
ENDBRANCH   3  11
TORSDOF 3
ENDMDL
MODEL 2
REMARK VINA RESULT:      -5.8     13.353     14.154
REMARK SMILES O=C/C=C/c1ccc(O)cc1
REMARK SMILES IDX 6 1 7 2 8 3 10 4 11 5 5 6 4 7 3 8 2 9 1 10 9 11
REMARK H PARENT 9 12
ROOT
ATOM      1  C   UNL     1      -3.364   0.503 -27.009  1.00  0.00     0.012 A 
ATOM      2  C   UNL     1      -2.479   0.845 -28.036  1.00  0.00     0.047 A 
ATOM      3  C   UNL     1      -2.333  -0.007 -29.125  1.00  0.00     0.115 A 
ATOM      4  C   UNL     1      -3.059  -1.188 -29.205  1.00  0.00     0.047 A 
ATOM      5  C   UNL     1      -3.943  -1.527 -28.178  1.00  0.00     0.012 A 
ATOM      6  C   UNL     1      -4.096  -0.693 -27.061  1.00  0.00    -0.025 A 
ENDROOT
BRANCH   6   7
ATOM      7  C   UNL     1      -5.061  -1.075 -26.019  1.00  0.00     0.011 C 
ATOM      8  C   UNL     1      -5.333  -0.320 -24.946  1.00  0.00     0.044 C 
BRANCH   8   9
ATOM      9  C   UNL     1      -6.311  -0.786 -23.945  1.00  0.00     0.252 C 
ATOM     10  O   UNL     1      -6.768  -1.921 -23.983  1.00  0.00    -0.299 OA
ENDBRANCH   8   9
ENDBRANCH   6   7
BRANCH   3  11
ATOM     11  O   UNL     1      -1.483   0.286 -30.149  1.00  0.00    -0.508 OA
ATOM     12  H   UNL     1      -1.998   0.659 -30.883  1.00  0.00     0.293 HD
ENDBRANCH   3  11
TORSDOF 3
ENDMDL
MODEL 3
REMARK VINA RESULT:      -5.8     13.381     14.161
REMARK SMILES O=C/C=C/c1ccc(O)cc1
REMARK SMILES IDX 6 1 7 2 8 3 10 4 11 5 5 6 4 7 3 8 2 9 1 10 9 11
REMARK H PARENT 9 12
ROOT
ATOM      1  C   UNL     1      -3.974  -1.635 -28.234  1.00  0.00     0.012 A 
ATOM      2  C   UNL     1      -3.081  -1.274 -29.247  1.00  0.00     0.047 A 
ATOM      3  C   UNL     1      -2.370  -0.084 -29.140  1.00  0.00     0.115 A 
ATOM      4  C   UNL     1      -2.533   0.743 -28.036  1.00  0.00     0.047 A 
ATOM      5  C   UNL     1      -3.426   0.379 -27.025  1.00  0.00     0.012 A 
ATOM      6  C   UNL     1      -4.167  -0.807 -27.118  1.00  0.00    -0.025 A 
ENDROOT
BRANCH   6   7
ATOM      7  C   UNL     1      -5.071  -1.166 -26.016  1.00  0.00     0.011 C 
ATOM      8  C   UNL     1      -5.371  -0.342 -25.003  1.00  0.00     0.044 C 
BRANCH   8   9
ATOM      9  C   UNL     1      -6.284  -0.789 -23.933  1.00  0.00     0.252 C 
ATOM     10  O   UNL     1      -6.807  -1.895 -23.965  1.00  0.00    -0.299 OA
ENDBRANCH   8   9
ENDBRANCH   6   7
BRANCH   3  11
ATOM     11  O   UNL     1      -1.488   0.308 -30.102  1.00  0.00    -0.508 OA
ATOM     12  H   UNL     1      -1.428   1.278 -30.092  1.00  0.00     0.293 HD
ENDBRANCH   3  11
TORSDOF 3
ENDMDL
MODEL 4
REMARK VINA RESULT:      -5.5     16.284     19.801
REMARK SMILES O=C/C=C/c1ccc(O)cc1
REMARK SMILES IDX 6 1 7 2 8 3 10 4 11 5 5 6 4 7 3 8 2 9 1 10 9 11
REMARK H PARENT 9 12
ROOT
ATOM      1  C   UNL     1      -7.963   1.710 -31.273  1.00  0.00     0.012 A 
ATOM      2  C   UNL     1      -9.325   1.887 -31.532  1.00  0.00     0.047 A 
ATOM      3  C   UNL     1      -9.838   1.527 -32.772  1.00  0.00     0.115 A 
ATOM      4  C   UNL     1      -9.013   0.989 -33.753  1.00  0.00     0.047 A 
ATOM      5  C   UNL     1      -7.653   0.813 -33.492  1.00  0.00     0.012 A 
ATOM      6  C   UNL     1      -7.108   1.184 -32.254  1.00  0.00    -0.025 A 
ENDROOT
BRANCH   6   7
ATOM      7  C   UNL     1      -5.677   0.951 -32.012  1.00  0.00     0.011 C 
ATOM      8  C   UNL     1      -5.208   0.057 -31.131  1.00  0.00     0.044 C 
BRANCH   8   9
ATOM      9  C   UNL     1      -3.752  -0.104 -30.947  1.00  0.00     0.252 C 
ATOM     10  O   UNL     1      -3.134  -0.996 -31.513  1.00  0.00    -0.299 OA
ENDBRANCH   8   9
ENDBRANCH   6   7
BRANCH   3  11
ATOM     11  O   UNL     1     -11.160   1.680 -33.069  1.00  0.00    -0.508 OA
ATOM     12  H   UNL     1     -11.599   0.818 -32.983  1.00  0.00     0.293 HD
ENDBRANCH   3  11
TORSDOF 3
ENDMDL
MODEL 5
REMARK VINA RESULT:      -5.5      1.754      2.439
REMARK SMILES O=C/C=C/c1ccc(O)cc1
REMARK SMILES IDX 6 1 7 2 8 3 10 4 11 5 5 6 4 7 3 8 2 9 1 10 9 11
REMARK H PARENT 9 12
ROOT
ATOM      1  C   UNL     1       9.299  -0.703 -17.314  1.00  0.00     0.012 A 
ATOM      2  C   UNL     1       9.615   0.202 -16.296  1.00  0.00     0.047 A 
ATOM      3  C   UNL     1       8.718   1.215 -15.979  1.00  0.00     0.115 A 
ATOM      4  C   UNL     1       7.512   1.334 -16.659  1.00  0.00     0.047 A 
ATOM      5  C   UNL     1       7.199   0.429 -17.675  1.00  0.00     0.012 A 
ATOM      6  C   UNL     1       8.095  -0.592 -18.025  1.00  0.00    -0.025 A 
ENDROOT
BRANCH   6   7
ATOM      7  C   UNL     1       7.710  -1.541 -19.080  1.00  0.00     0.011 C 
ATOM      8  C   UNL     1       6.524  -1.518 -19.704  1.00  0.00     0.044 C 
BRANCH   8   9
ATOM      9  C   UNL     1       6.220  -2.517 -20.747  1.00  0.00     0.252 C 
ATOM     10  O   UNL     1       6.648  -3.661 -20.676  1.00  0.00    -0.299 OA
ENDBRANCH   8   9
ENDBRANCH   6   7
BRANCH   3  11
ATOM     11  O   UNL     1       8.982   2.118 -14.993  1.00  0.00    -0.508 OA
ATOM     12  H   UNL     1       9.859   1.925 -14.622  1.00  0.00     0.293 HD
ENDBRANCH   3  11
TORSDOF 3
ENDMDL
MODEL 6
REMARK VINA RESULT:      -5.5     12.994     14.629
REMARK SMILES O=C/C=C/c1ccc(O)cc1
REMARK SMILES IDX 6 1 7 2 8 3 10 4 11 5 5 6 4 7 3 8 2 9 1 10 9 11
REMARK H PARENT 9 12
ROOT
ATOM      1  C   UNL     1      -0.975  -8.991 -26.104  1.00  0.00     0.012 A 
ATOM      2  C   UNL     1      -1.999  -8.597 -26.971  1.00  0.00     0.047 A 
ATOM      3  C   UNL     1      -2.416  -9.464 -27.975  1.00  0.00     0.115 A 
ATOM      4  C   UNL     1      -1.831 -10.715 -28.120  1.00  0.00     0.047 A 
ATOM      5  C   UNL     1      -0.808 -11.106 -27.253  1.00  0.00     0.012 A 
ATOM      6  C   UNL     1      -0.359 -10.244 -26.243  1.00  0.00    -0.025 A 
ENDROOT
BRANCH   6   7
ATOM      7  C   UNL     1       0.698 -10.709 -25.333  1.00  0.00     0.011 C 
ATOM      8  C   UNL     1       0.776 -11.962 -24.864  1.00  0.00     0.044 C 
BRANCH   8   9
ATOM      9  C   UNL     1       1.869 -12.339 -23.946  1.00  0.00     0.252 C 
ATOM     10  O   UNL     1       2.145 -11.654 -22.971  1.00  0.00    -0.299 OA
ENDBRANCH   8   9
ENDBRANCH   6   7
BRANCH   3  11
ATOM     11  O   UNL     1      -3.411  -9.123 -28.842  1.00  0.00    -0.508 OA
ATOM     12  H   UNL     1      -3.916  -8.385 -28.461  1.00  0.00     0.293 HD
ENDBRANCH   3  11
TORSDOF 3
ENDMDL
MODEL 7
REMARK VINA RESULT:      -5.4     17.007     20.295
REMARK SMILES O=C/C=C/c1ccc(O)cc1
REMARK SMILES IDX 6 1 7 2 8 3 10 4 11 5 5 6 4 7 3 8 2 9 1 10 9 11
REMARK H PARENT 9 12
ROOT
ATOM      1  C   UNL     1      -7.821   0.840 -33.423  1.00  0.00     0.012 A 
ATOM      2  C   UNL     1      -9.082   0.365 -33.797  1.00  0.00     0.047 A 
ATOM      3  C   UNL     1     -10.123   0.387 -32.876  1.00  0.00     0.115 A 
ATOM      4  C   UNL     1      -9.924   0.880 -31.593  1.00  0.00     0.047 A 
ATOM      5  C   UNL     1      -8.664   1.354 -31.221  1.00  0.00     0.012 A 
ATOM      6  C   UNL     1      -7.594   1.327 -32.127  1.00  0.00    -0.025 A 
ENDROOT
BRANCH   6   7
ATOM      7  C   UNL     1      -6.293   1.865 -31.702  1.00  0.00     0.011 C 
ATOM      8  C   UNL     1      -6.146   2.768 -30.723  1.00  0.00     0.044 C 
BRANCH   8   9
ATOM      9  C   UNL     1      -4.801   3.260 -30.369  1.00  0.00     0.252 C 
ATOM     10  O   UNL     1      -4.486   4.430 -30.542  1.00  0.00    -0.299 OA
ENDBRANCH   8   9
ENDBRANCH   6   7
BRANCH   3  11
ATOM     11  O   UNL     1     -11.368  -0.064 -33.198  1.00  0.00    -0.508 OA
ATOM     12  H   UNL     1     -11.685   0.425 -33.975  1.00  0.00     0.293 HD
ENDBRANCH   3  11
TORSDOF 3
ENDMDL
MODEL 8
REMARK VINA RESULT:      -5.3      2.143      5.651
REMARK SMILES O=C/C=C/c1ccc(O)cc1
REMARK SMILES IDX 6 1 7 2 8 3 10 4 11 5 5 6 4 7 3 8 2 9 1 10 9 11
REMARK H PARENT 9 12
ROOT
ATOM      1  C   UNL     1       6.549  -1.164 -16.784  1.00  0.00     0.012 A 
ATOM      2  C   UNL     1       6.057  -2.232 -17.541  1.00  0.00     0.047 A 
ATOM      3  C   UNL     1       6.494  -2.401 -18.849  1.00  0.00     0.115 A 
ATOM      4  C   UNL     1       7.417  -1.525 -19.408  1.00  0.00     0.047 A 
ATOM      5  C   UNL     1       7.907  -0.460 -18.650  1.00  0.00     0.012 A 
ATOM      6  C   UNL     1       7.469  -0.258 -17.333  1.00  0.00    -0.025 A 
ENDROOT
BRANCH   6   7
ATOM      7  C   UNL     1       8.035   0.858 -16.562  1.00  0.00     0.011 C 
ATOM      8  C   UNL     1       9.209   0.796 -15.918  1.00  0.00     0.044 C 
BRANCH   8   9
ATOM      9  C   UNL     1       9.697   1.964 -15.160  1.00  0.00     0.252 C 
ATOM     10  O   UNL     1       9.673   1.983 -13.936  1.00  0.00    -0.299 OA
ENDBRANCH   8   9
ENDBRANCH   6   7
BRANCH   3  11
ATOM     11  O   UNL     1       6.043  -3.428 -19.624  1.00  0.00    -0.508 OA
ATOM     12  H   UNL     1       5.724  -3.064 -20.467  1.00  0.00     0.293 HD
ENDBRANCH   3  11
TORSDOF 3
ENDMDL
MODEL 9
REMARK VINA RESULT:      -5.3     16.285     18.882
REMARK SMILES O=C/C=C/c1ccc(O)cc1
REMARK SMILES IDX 6 1 7 2 8 3 10 4 11 5 5 6 4 7 3 8 2 9 1 10 9 11
REMARK H PARENT 9 12
ROOT
ATOM      1  C   UNL     1      -6.200   1.269 -32.267  1.00  0.00     0.012 A 
ATOM      2  C   UNL     1      -4.911   1.525 -31.790  1.00  0.00     0.047 A 
ATOM      3  C   UNL     1      -4.356   0.683 -30.834  1.00  0.00     0.115 A 
ATOM      4  C   UNL     1      -5.065  -0.410 -30.353  1.00  0.00     0.047 A 
ATOM      5  C   UNL     1      -6.352  -0.664 -30.831  1.00  0.00     0.012 A 
ATOM      6  C   UNL     1      -6.941   0.180 -31.784  1.00  0.00    -0.025 A 
ENDROOT
BRANCH   6   7
ATOM      7  C   UNL     1      -8.285  -0.144 -32.282  1.00  0.00     0.011 C 
ATOM      8  C   UNL     1      -8.849   0.452 -33.341  1.00  0.00     0.044 C 
BRANCH   8   9
ATOM      9  C   UNL     1     -10.209   0.069 -33.767  1.00  0.00     0.252 C 
ATOM     10  O   UNL     1     -11.166   0.178 -33.012  1.00  0.00    -0.299 OA
ENDBRANCH   8   9
ENDBRANCH   6   7
BRANCH   3  11
ATOM     11  O   UNL     1      -3.102   0.894 -30.341  1.00  0.00    -0.508 OA
ATOM     12  H   UNL     1      -2.493   1.022 -31.086  1.00  0.00     0.293 HD
ENDBRANCH   3  11
TORSDOF 3
ENDMDL
MODEL 10
REMARK VINA RESULT:      -5.3     16.566     19.038
REMARK SMILES O=C/C=C/c1ccc(O)cc1
REMARK SMILES IDX 6 1 7 2 8 3 10 4 11 5 5 6 4 7 3 8 2 9 1 10 9 11
REMARK H PARENT 9 12
ROOT
ATOM      1  C   UNL     1      -7.269   2.271 -30.370  1.00  0.00     0.012 A 
ATOM      2  C   UNL     1      -6.029   2.489 -29.761  1.00  0.00     0.047 A 
ATOM      3  C   UNL     1      -4.868   2.091 -30.412  1.00  0.00     0.115 A 
ATOM      4  C   UNL     1      -4.926   1.485 -31.661  1.00  0.00     0.047 A 
ATOM      5  C   UNL     1      -6.166   1.268 -32.267  1.00  0.00     0.012 A 
ATOM      6  C   UNL     1      -7.353   1.646 -31.623  1.00  0.00    -0.025 A 
ENDROOT
BRANCH   6   7
ATOM      7  C   UNL     1      -8.633   1.428 -32.312  1.00  0.00     0.011 C 
ATOM      8  C   UNL     1      -8.932   0.310 -32.987  1.00  0.00     0.044 C 
BRANCH   8   9
ATOM      9  C   UNL     1     -10.241   0.180 -33.657  1.00  0.00     0.252 C 
ATOM     10  O   UNL     1     -11.282   0.132 -33.015  1.00  0.00    -0.299 OA
ENDBRANCH   8   9
ENDBRANCH   6   7
BRANCH   3  11
ATOM     11  O   UNL     1      -3.638   2.284 -29.858  1.00  0.00    -0.508 OA
ATOM     12  H   UNL     1      -3.670   3.080 -29.301  1.00  0.00     0.293 HD
ENDBRANCH   3  11
TORSDOF 3
ENDMDL
