MODEL 1
REMARK VINA RESULT:      -8.1      0.000      0.000
REMARK SMILES O=C(C=Cc1ccc(O)c(O)c1)O[C@@H](Cc1ccc(O)c(O)c1)C(=O)O
REMARK SMILES IDX 13 1 14 2 15 3 16 4 17 5 18 6 19 7 23 8 21 9 20 10 22 12
REMARK SMILES IDX 24 14 25 15 26 16 2 18 1 19 3 20 4 21 5 22 12 23 6 24 10 25
REMARK SMILES IDX 7 26 8 27 11 28 9 30
REMARK H PARENT 20 11 22 13 26 17 11 29 9 31
ROOT
ATOM      1  O   UNL     1      -8.698  -0.852 -32.463  1.00  0.00    -0.447 OA
ENDROOT
BRANCH   1   2
ATOM      2  C   UNL     1      -9.206   0.453 -32.100  1.00  0.00     0.290 C 
BRANCH   2   3
ATOM      3  C   UNL     1      -8.283   1.583 -32.581  1.00  0.00     0.093 C 
BRANCH   3   4
ATOM      4  C   UNL     1      -7.013   1.719 -31.768  1.00  0.00    -0.040 A 
ATOM      5  C   UNL     1      -7.018   2.414 -30.546  1.00  0.00     0.008 A 
ATOM      6  C   UNL     1      -5.842   2.574 -29.807  1.00  0.00     0.050 A 
ATOM      7  C   UNL     1      -4.657   2.039 -30.294  1.00  0.00     0.157 A 
ATOM      8  C   UNL     1      -5.808   1.178 -32.239  1.00  0.00     0.054 A 
ATOM      9  C   UNL     1      -4.644   1.347 -31.502  1.00  0.00     0.157 A 
BRANCH   7  10
ATOM     10  O   UNL     1      -3.475   2.167 -29.622  1.00  0.00    -0.504 OA
ATOM     11  H   UNL     1      -3.093   1.279 -29.511  1.00  0.00     0.293 HD
ENDBRANCH   7  10
BRANCH   9  12
ATOM     12  O   UNL     1      -3.475   0.829 -31.980  1.00  0.00    -0.504 OA
ATOM     13  H   UNL     1      -3.745   0.016 -32.454  1.00  0.00     0.293 HD
ENDBRANCH   9  12
ENDBRANCH   3   4
ENDBRANCH   2   3
BRANCH   2  14
ATOM     14  C   UNL     1     -10.603   0.619 -32.691  1.00  0.00     0.345 C 
ATOM     15  O   UNL     1     -11.380  -0.304 -32.894  1.00  0.00    -0.248 OA
BRANCH  14  16
ATOM     16  O   UNL     1     -10.921   1.908 -32.967  1.00  0.00    -0.478 OA
ATOM     17  H   UNL     1     -11.460   1.950 -33.786  1.00  0.00     0.296 HD
ENDBRANCH  14  16
ENDBRANCH   2  14
ENDBRANCH   1   2
BRANCH   1  18
ATOM     18  C   UNL     1      -8.702  -1.761 -31.455  1.00  0.00     0.331 C 
ATOM     19  O   UNL     1      -9.204  -2.870 -31.488  1.00  0.00    -0.247 OA
BRANCH  18  20
ATOM     20  C   UNL     1      -8.004  -1.169 -30.298  1.00  0.00     0.094 C 
ATOM     21  C   UNL     1      -6.801  -1.643 -29.936  1.00  0.00     0.016 C 
BRANCH  21  22
ATOM     22  C   UNL     1      -6.024  -1.116 -28.806  1.00  0.00    -0.021 A 
ATOM     23  C   UNL     1      -6.682  -0.337 -27.841  1.00  0.00     0.058 A 
ATOM     24  C   UNL     1      -4.638  -1.325 -28.692  1.00  0.00     0.012 A 
ATOM     25  C   UNL     1      -5.962   0.191 -26.774  1.00  0.00     0.157 A 
ATOM     26  C   UNL     1      -3.924  -0.791 -27.615  1.00  0.00     0.051 A 
ATOM     27  C   UNL     1      -4.595  -0.041 -26.663  1.00  0.00     0.157 A 
BRANCH  25  28
ATOM     28  O   UNL     1      -6.558   0.949 -25.804  1.00  0.00    -0.504 OA
ATOM     29  H   UNL     1      -6.335   1.882 -25.965  1.00  0.00     0.293 HD
ENDBRANCH  25  28
BRANCH  27  30
ATOM     30  O   UNL     1      -3.896   0.482 -25.613  1.00  0.00    -0.504 OA
ATOM     31  H   UNL     1      -4.576   0.669 -24.935  1.00  0.00     0.293 HD
ENDBRANCH  27  30
ENDBRANCH  21  22
ENDBRANCH  18  20
ENDBRANCH   1  18
TORSDOF 12
ENDMDL
MODEL 2
REMARK VINA RESULT:      -8.0      1.557      2.128
REMARK SMILES O=C(C=Cc1ccc(O)c(O)c1)O[C@@H](Cc1ccc(O)c(O)c1)C(=O)O
REMARK SMILES IDX 13 1 14 2 15 3 16 4 17 5 18 6 19 7 23 8 21 9 20 10 22 12
REMARK SMILES IDX 24 14 25 15 26 16 2 18 1 19 3 20 4 21 5 22 12 23 6 24 10 25
REMARK SMILES IDX 7 26 8 27 11 28 9 30
REMARK H PARENT 20 11 22 13 26 17 11 29 9 31
ROOT
ATOM      1  O   UNL     1      -8.681  -1.430 -31.882  1.00  0.00    -0.447 OA
ENDROOT
BRANCH   1   2
ATOM      2  C   UNL     1      -9.218  -0.129 -31.552  1.00  0.00     0.290 C 
BRANCH   2   3
ATOM      3  C   UNL     1      -8.578   0.987 -32.391  1.00  0.00     0.093 C 
BRANCH   3   4
ATOM      4  C   UNL     1      -7.293   1.531 -31.802  1.00  0.00    -0.040 A 
ATOM      5  C   UNL     1      -7.318   2.296 -30.622  1.00  0.00     0.008 A 
ATOM      6  C   UNL     1      -6.140   2.832 -30.091  1.00  0.00     0.050 A 
ATOM      7  C   UNL     1      -4.936   2.603 -30.744  1.00  0.00     0.157 A 
ATOM      8  C   UNL     1      -6.067   1.304 -32.442  1.00  0.00     0.054 A 
ATOM      9  C   UNL     1      -4.904   1.845 -31.912  1.00  0.00     0.157 A 
BRANCH   7  10
ATOM     10  O   UNL     1      -3.753   3.104 -30.279  1.00  0.00    -0.504 OA
ATOM     11  H   UNL     1      -3.601   3.964 -30.708  1.00  0.00     0.293 HD
ENDBRANCH   7  10
BRANCH   9  12
ATOM     12  O   UNL     1      -3.719   1.629 -32.554  1.00  0.00    -0.504 OA
ATOM     13  H   UNL     1      -3.194   2.436 -32.372  1.00  0.00     0.293 HD
ENDBRANCH   9  12
ENDBRANCH   3   4
ENDBRANCH   2   3
BRANCH   2  14
ATOM     14  C   UNL     1     -10.730  -0.153 -31.762  1.00  0.00     0.345 C 
ATOM     15  O   UNL     1     -11.273  -0.233 -32.854  1.00  0.00    -0.248 OA
BRANCH  14  16
ATOM     16  O   UNL     1     -11.435  -0.088 -30.605  1.00  0.00    -0.478 OA
ATOM     17  H   UNL     1     -11.190   0.724 -30.110  1.00  0.00     0.296 HD
ENDBRANCH  14  16
ENDBRANCH   2  14
ENDBRANCH   1   2
BRANCH   1  18
ATOM     18  C   UNL     1      -8.221  -2.139 -30.820  1.00  0.00     0.331 C 
ATOM     19  O   UNL     1      -8.601  -3.242 -30.471  1.00  0.00    -0.247 OA
BRANCH  18  20
ATOM     20  C   UNL     1      -7.184  -1.336 -30.145  1.00  0.00     0.094 C 
ATOM     21  C   UNL     1      -5.944  -1.833 -30.008  1.00  0.00     0.016 C 
BRANCH  21  22
ATOM     22  C   UNL     1      -4.842  -1.109 -29.360  1.00  0.00    -0.021 A 
ATOM     23  C   UNL     1      -3.703  -0.797 -30.119  1.00  0.00     0.058 A 
ATOM     24  C   UNL     1      -4.874  -0.769 -27.996  1.00  0.00     0.012 A 
ATOM     25  C   UNL     1      -2.638  -0.132 -29.520  1.00  0.00     0.157 A 
ATOM     26  C   UNL     1      -3.799  -0.099 -27.404  1.00  0.00     0.051 A 
ATOM     27  C   UNL     1      -2.691   0.216 -28.174  1.00  0.00     0.157 A 
BRANCH  25  28
ATOM     28  O   UNL     1      -1.509   0.202 -30.218  1.00  0.00    -0.504 OA
ATOM     29  H   UNL     1      -1.516  -0.283 -31.061  1.00  0.00     0.293 HD
ENDBRANCH  25  28
BRANCH  27  30
ATOM     30  O   UNL     1      -1.641   0.869 -27.595  1.00  0.00    -0.504 OA
ATOM     31  H   UNL     1      -1.539   0.444 -26.720  1.00  0.00     0.293 HD
ENDBRANCH  27  30
ENDBRANCH  21  22
ENDBRANCH  18  20
ENDBRANCH   1  18
TORSDOF 12
ENDMDL
MODEL 3
REMARK VINA RESULT:      -7.9      1.834      3.650
REMARK SMILES O=C(C=Cc1ccc(O)c(O)c1)O[C@@H](Cc1ccc(O)c(O)c1)C(=O)O
REMARK SMILES IDX 13 1 14 2 15 3 16 4 17 5 18 6 19 7 23 8 21 9 20 10 22 12
REMARK SMILES IDX 24 14 25 15 26 16 2 18 1 19 3 20 4 21 5 22 12 23 6 24 10 25
REMARK SMILES IDX 7 26 8 27 11 28 9 30
REMARK H PARENT 20 11 22 13 26 17 11 29 9 31
ROOT
ATOM      1  O   UNL     1      -8.637   1.498 -31.995  1.00  0.00    -0.447 OA
ENDROOT
BRANCH   1   2
ATOM      2  C   UNL     1      -9.384   0.264 -32.088  1.00  0.00     0.290 C 
BRANCH   2   3
ATOM      3  C   UNL     1      -9.724  -0.308 -30.704  1.00  0.00     0.093 C 
BRANCH   3   4
ATOM      4  C   UNL     1      -8.523  -0.847 -29.955  1.00  0.00    -0.040 A 
ATOM      5  C   UNL     1      -7.869  -2.009 -30.399  1.00  0.00     0.008 A 
ATOM      6  C   UNL     1      -6.781  -2.533 -29.694  1.00  0.00     0.050 A 
ATOM      7  C   UNL     1      -6.350  -1.892 -28.540  1.00  0.00     0.157 A 
ATOM      8  C   UNL     1      -8.067  -0.209 -28.792  1.00  0.00     0.054 A 
ATOM      9  C   UNL     1      -6.992  -0.740 -28.095  1.00  0.00     0.157 A 
BRANCH   7  10
ATOM     10  O   UNL     1      -5.297  -2.358 -27.803  1.00  0.00    -0.504 OA
ATOM     11  H   UNL     1      -5.619  -2.553 -26.907  1.00  0.00     0.293 HD
ENDBRANCH   7  10
BRANCH   9  12
ATOM     12  O   UNL     1      -6.568  -0.119 -26.955  1.00  0.00    -0.504 OA
ATOM     13  H   UNL     1      -7.394   0.150 -26.504  1.00  0.00     0.293 HD
ENDBRANCH   9  12
ENDBRANCH   3   4
ENDBRANCH   2   3
BRANCH   2  14
ATOM     14  C   UNL     1     -10.659   0.518 -32.888  1.00  0.00     0.345 C 
ATOM     15  O   UNL     1     -11.353  -0.361 -33.377  1.00  0.00    -0.248 OA
BRANCH  14  16
ATOM     16  O   UNL     1     -10.969   1.834 -33.002  1.00  0.00    -0.478 OA
ATOM     17  H   UNL     1     -11.927   1.936 -33.187  1.00  0.00     0.296 HD
ENDBRANCH  14  16
ENDBRANCH   2  14
ENDBRANCH   1   2
BRANCH   1  18
ATOM     18  C   UNL     1      -7.423   1.473 -32.601  1.00  0.00     0.331 C 
ATOM     19  O   UNL     1      -7.215   1.324 -33.792  1.00  0.00    -0.247 OA
BRANCH  18  20
ATOM     20  C   UNL     1      -6.387   1.642 -31.563  1.00  0.00     0.094 C 
ATOM     21  C   UNL     1      -5.504   0.656 -31.342  1.00  0.00     0.016 C 
BRANCH  21  22
ATOM     22  C   UNL     1      -4.433   0.731 -30.338  1.00  0.00    -0.021 A 
ATOM     23  C   UNL     1      -4.298   1.908 -29.584  1.00  0.00     0.058 A 
ATOM     24  C   UNL     1      -3.512  -0.314 -30.150  1.00  0.00     0.012 A 
ATOM     25  C   UNL     1      -3.278   2.011 -28.644  1.00  0.00     0.157 A 
ATOM     26  C   UNL     1      -2.491  -0.202 -29.202  1.00  0.00     0.051 A 
ATOM     27  C   UNL     1      -2.386   0.960 -28.455  1.00  0.00     0.157 A 
BRANCH  25  28
ATOM     28  O   UNL     1      -3.110   3.132 -27.879  1.00  0.00    -0.504 OA
ATOM     29  H   UNL     1      -2.883   3.873 -28.468  1.00  0.00     0.293 HD
ENDBRANCH  25  28
BRANCH  27  30
ATOM     30  O   UNL     1      -1.387   1.070 -27.530  1.00  0.00    -0.504 OA
ATOM     31  H   UNL     1      -1.295   2.033 -27.382  1.00  0.00     0.293 HD
ENDBRANCH  27  30
ENDBRANCH  21  22
ENDBRANCH  18  20
ENDBRANCH   1  18
TORSDOF 12
ENDMDL
MODEL 4
REMARK VINA RESULT:      -7.9      2.335      4.538
REMARK SMILES O=C(C=Cc1ccc(O)c(O)c1)O[C@@H](Cc1ccc(O)c(O)c1)C(=O)O
REMARK SMILES IDX 13 1 14 2 15 3 16 4 17 5 18 6 19 7 23 8 21 9 20 10 22 12
REMARK SMILES IDX 24 14 25 15 26 16 2 18 1 19 3 20 4 21 5 22 12 23 6 24 10 25
REMARK SMILES IDX 7 26 8 27 11 28 9 30
REMARK H PARENT 20 11 22 13 26 17 11 29 9 31
ROOT
ATOM      1  O   UNL     1      -8.632   1.612 -32.002  1.00  0.00    -0.447 OA
ENDROOT
BRANCH   1   2
ATOM      2  C   UNL     1      -9.485   0.445 -31.954  1.00  0.00     0.290 C 
BRANCH   2   3
ATOM      3  C   UNL     1     -10.016   0.179 -30.537  1.00  0.00     0.093 C 
BRANCH   3   4
ATOM      4  C   UNL     1      -9.595  -1.161 -29.972  1.00  0.00    -0.040 A 
ATOM      5  C   UNL     1      -9.149  -2.187 -30.824  1.00  0.00     0.008 A 
ATOM      6  C   UNL     1      -8.792  -3.439 -30.314  1.00  0.00     0.050 A 
ATOM      7  C   UNL     1      -8.885  -3.664 -28.946  1.00  0.00     0.157 A 
ATOM      8  C   UNL     1      -9.674  -1.406 -28.593  1.00  0.00     0.054 A 
ATOM      9  C   UNL     1      -9.324  -2.653 -28.096  1.00  0.00     0.157 A 
BRANCH   7  10
ATOM     10  O   UNL     1      -8.557  -4.868 -28.388  1.00  0.00    -0.504 OA
ATOM     11  H   UNL     1      -7.841  -4.717 -27.747  1.00  0.00     0.293 HD
ENDBRANCH   7  10
BRANCH   9  12
ATOM     12  O   UNL     1      -9.421  -2.883 -26.754  1.00  0.00    -0.504 OA
ATOM     13  H   UNL     1      -9.589  -3.845 -26.684  1.00  0.00     0.293 HD
ENDBRANCH   9  12
ENDBRANCH   3   4
ENDBRANCH   2   3
BRANCH   2  14
ATOM     14  C   UNL     1     -10.644   0.642 -32.929  1.00  0.00     0.345 C 
ATOM     15  O   UNL     1     -11.228  -0.269 -33.497  1.00  0.00    -0.248 OA
BRANCH  14  16
ATOM     16  O   UNL     1     -10.984   1.943 -33.105  1.00  0.00    -0.478 OA
ATOM     17  H   UNL     1     -11.485   2.265 -32.324  1.00  0.00     0.296 HD
ENDBRANCH  14  16
ENDBRANCH   2  14
ENDBRANCH   1   2
BRANCH   1  18
ATOM     18  C   UNL     1      -7.456   1.426 -32.654  1.00  0.00     0.331 C 
ATOM     19  O   UNL     1      -7.322   1.138 -33.829  1.00  0.00    -0.247 OA
BRANCH  18  20
ATOM     20  C   UNL     1      -6.359   1.621 -31.687  1.00  0.00     0.094 C 
ATOM     21  C   UNL     1      -5.681   0.556 -31.230  1.00  0.00     0.016 C 
BRANCH  21  22
ATOM     22  C   UNL     1      -4.569   0.647 -30.274  1.00  0.00    -0.021 A 
ATOM     23  C   UNL     1      -4.403   1.835 -29.545  1.00  0.00     0.058 A 
ATOM     24  C   UNL     1      -3.642  -0.397 -30.106  1.00  0.00     0.012 A 
ATOM     25  C   UNL     1      -3.345   1.952 -28.650  1.00  0.00     0.157 A 
ATOM     26  C   UNL     1      -2.582  -0.270 -29.204  1.00  0.00     0.051 A 
ATOM     27  C   UNL     1      -2.446   0.904 -28.480  1.00  0.00     0.157 A 
BRANCH  25  28
ATOM     28  O   UNL     1      -3.144   3.086 -27.910  1.00  0.00    -0.504 OA
ATOM     29  H   UNL     1      -4.011   3.424 -27.627  1.00  0.00     0.293 HD
ENDBRANCH  25  28
BRANCH  27  30
ATOM     30  O   UNL     1      -1.410   1.028 -27.600  1.00  0.00    -0.504 OA
ATOM     31  H   UNL     1      -0.955   0.163 -27.632  1.00  0.00     0.293 HD
ENDBRANCH  27  30
ENDBRANCH  21  22
ENDBRANCH  18  20
ENDBRANCH   1  18
TORSDOF 12
ENDMDL
MODEL 5
REMARK VINA RESULT:      -7.8      1.059      1.623
REMARK SMILES O=C(C=Cc1ccc(O)c(O)c1)O[C@@H](Cc1ccc(O)c(O)c1)C(=O)O
REMARK SMILES IDX 13 1 14 2 15 3 16 4 17 5 18 6 19 7 23 8 21 9 20 10 22 12
REMARK SMILES IDX 24 14 25 15 26 16 2 18 1 19 3 20 4 21 5 22 12 23 6 24 10 25
REMARK SMILES IDX 7 26 8 27 11 28 9 30
REMARK H PARENT 20 11 22 13 26 17 11 29 9 31
ROOT
ATOM      1  O   UNL     1      -9.036  -1.381 -32.395  1.00  0.00    -0.447 OA
ENDROOT
BRANCH   1   2
ATOM      2  C   UNL     1      -9.234   0.042 -32.234  1.00  0.00     0.290 C 
BRANCH   2   3
ATOM      3  C   UNL     1      -8.219   0.859 -33.047  1.00  0.00     0.093 C 
BRANCH   3   4
ATOM      4  C   UNL     1      -7.057   1.377 -32.226  1.00  0.00    -0.040 A 
ATOM      5  C   UNL     1      -5.733   1.149 -32.641  1.00  0.00     0.008 A 
ATOM      6  C   UNL     1      -4.654   1.593 -31.871  1.00  0.00     0.050 A 
ATOM      7  C   UNL     1      -4.901   2.266 -30.681  1.00  0.00     0.157 A 
ATOM      8  C   UNL     1      -7.286   2.066 -31.027  1.00  0.00     0.054 A 
ATOM      9  C   UNL     1      -6.210   2.497 -30.265  1.00  0.00     0.157 A 
BRANCH   7  10
ATOM     10  O   UNL     1      -3.890   2.719 -29.882  1.00  0.00    -0.504 OA
ATOM     11  H   UNL     1      -4.276   3.313 -29.215  1.00  0.00     0.293 HD
ENDBRANCH   7  10
BRANCH   9  12
ATOM     12  O   UNL     1      -6.447   3.152 -29.091  1.00  0.00    -0.504 OA
ATOM     13  H   UNL     1      -6.561   2.437 -28.433  1.00  0.00     0.293 HD
ENDBRANCH   9  12
ENDBRANCH   3   4
ENDBRANCH   2   3
BRANCH   2  14
ATOM     14  C   UNL     1     -10.659   0.392 -32.654  1.00  0.00     0.345 C 
ATOM     15  O   UNL     1     -11.554  -0.427 -32.804  1.00  0.00    -0.248 OA
BRANCH  14  16
ATOM     16  O   UNL     1     -10.854   1.721 -32.841  1.00  0.00    -0.478 OA
ATOM     17  H   UNL     1     -11.094   1.895 -33.776  1.00  0.00     0.296 HD
ENDBRANCH  14  16
ENDBRANCH   2  14
ENDBRANCH   1   2
BRANCH   1  18
ATOM     18  C   UNL     1      -8.924  -2.072 -31.232  1.00  0.00     0.331 C 
ATOM     19  O   UNL     1      -9.560  -3.061 -30.917  1.00  0.00    -0.247 OA
BRANCH  18  20
ATOM     20  C   UNL     1      -7.901  -1.409 -30.400  1.00  0.00     0.094 C 
ATOM     21  C   UNL     1      -6.664  -1.927 -30.332  1.00  0.00     0.016 C 
BRANCH  21  22
ATOM     22  C   UNL     1      -5.576  -1.338 -29.539  1.00  0.00    -0.021 A 
ATOM     23  C   UNL     1      -5.906  -0.534 -28.436  1.00  0.00     0.058 A 
ATOM     24  C   UNL     1      -4.224  -1.511 -29.883  1.00  0.00     0.012 A 
ATOM     25  C   UNL     1      -4.894   0.053 -27.684  1.00  0.00     0.157 A 
ATOM     26  C   UNL     1      -3.214  -0.918 -29.120  1.00  0.00     0.051 A 
ATOM     27  C   UNL     1      -3.559  -0.144 -28.024  1.00  0.00     0.157 A 
BRANCH  25  28
ATOM     28  O   UNL     1      -5.162   0.837 -26.595  1.00  0.00    -0.504 OA
ATOM     29  H   UNL     1      -4.792   1.722 -26.758  1.00  0.00     0.293 HD
ENDBRANCH  25  28
BRANCH  27  30
ATOM     30  O   UNL     1      -2.572   0.436 -27.281  1.00  0.00    -0.504 OA
ATOM     31  H   UNL     1      -2.330  -0.243 -26.620  1.00  0.00     0.293 HD
ENDBRANCH  27  30
ENDBRANCH  21  22
ENDBRANCH  18  20
ENDBRANCH   1  18
TORSDOF 12
ENDMDL
MODEL 6
REMARK VINA RESULT:      -7.7      1.609      6.679
REMARK SMILES O=C(C=Cc1ccc(O)c(O)c1)O[C@@H](Cc1ccc(O)c(O)c1)C(=O)O
REMARK SMILES IDX 13 1 14 2 15 3 16 4 17 5 18 6 19 7 23 8 21 9 20 10 22 12
REMARK SMILES IDX 24 14 25 15 26 16 2 18 1 19 3 20 4 21 5 22 12 23 6 24 10 25
REMARK SMILES IDX 7 26 8 27 11 28 9 30
REMARK H PARENT 20 11 22 13 26 17 11 29 9 31
ROOT
ATOM      1  O   UNL     1      -4.334   1.533 -29.381  1.00  0.00    -0.447 OA
ENDROOT
BRANCH   1   2
ATOM      2  C   UNL     1      -3.107   0.937 -29.861  1.00  0.00     0.290 C 
BRANCH   2   3
ATOM      3  C   UNL     1      -2.463   0.021 -28.809  1.00  0.00     0.093 C 
BRANCH   3   4
ATOM      4  C   UNL     1      -3.433  -0.477 -27.759  1.00  0.00    -0.040 A 
ATOM      5  C   UNL     1      -4.174  -1.653 -27.973  1.00  0.00     0.008 A 
ATOM      6  C   UNL     1      -5.098  -2.100 -27.024  1.00  0.00     0.050 A 
ATOM      7  C   UNL     1      -5.282  -1.367 -25.859  1.00  0.00     0.157 A 
ATOM      8  C   UNL     1      -3.627   0.245 -26.573  1.00  0.00     0.054 A 
ATOM      9  C   UNL     1      -4.551  -0.203 -25.640  1.00  0.00     0.157 A 
BRANCH   7  10
ATOM     10  O   UNL     1      -6.175  -1.748 -24.897  1.00  0.00    -0.504 OA
ATOM     11  H   UNL     1      -6.789  -1.010 -24.746  1.00  0.00     0.293 HD
ENDBRANCH   7  10
BRANCH   9  12
ATOM     12  O   UNL     1      -4.742   0.518 -24.496  1.00  0.00    -0.504 OA
ATOM     13  H   UNL     1      -4.740  -0.152 -23.783  1.00  0.00     0.293 HD
ENDBRANCH   9  12
ENDBRANCH   3   4
ENDBRANCH   2   3
BRANCH   2  14
ATOM     14  C   UNL     1      -3.405   0.155 -31.137  1.00  0.00     0.345 C 
ATOM     15  O   UNL     1      -3.749  -1.018 -31.162  1.00  0.00    -0.248 OA
BRANCH  14  16
ATOM     16  O   UNL     1      -3.264   0.894 -32.266  1.00  0.00    -0.478 OA
ATOM     17  H   UNL     1      -3.969   0.659 -32.908  1.00  0.00     0.296 HD
ENDBRANCH  14  16
ENDBRANCH   2  14
ENDBRANCH   1   2
BRANCH   1  18
ATOM     18  C   UNL     1      -4.911   2.411 -30.241  1.00  0.00     0.331 C 
ATOM     19  O   UNL     1      -4.393   3.412 -30.703  1.00  0.00    -0.247 OA
BRANCH  18  20
ATOM     20  C   UNL     1      -6.286   1.952 -30.513  1.00  0.00     0.094 C 
ATOM     21  C   UNL     1      -6.535   1.215 -31.607  1.00  0.00     0.016 C 
BRANCH  21  22
ATOM     22  C   UNL     1      -7.867   0.705 -31.961  1.00  0.00    -0.021 A 
ATOM     23  C   UNL     1      -8.864   1.624 -32.328  1.00  0.00     0.058 A 
ATOM     24  C   UNL     1      -8.185  -0.662 -31.892  1.00  0.00     0.012 A 
ATOM     25  C   UNL     1     -10.139   1.166 -32.645  1.00  0.00     0.157 A 
ATOM     26  C   UNL     1      -9.469  -1.113 -32.214  1.00  0.00     0.051 A 
ATOM     27  C   UNL     1     -10.433  -0.193 -32.592  1.00  0.00     0.157 A 
BRANCH  25  28
ATOM     28  O   UNL     1     -11.142   2.019 -33.017  1.00  0.00    -0.504 OA
ATOM     29  H   UNL     1     -11.948   1.495 -33.167  1.00  0.00     0.293 HD
ENDBRANCH  25  28
BRANCH  27  30
ATOM     30  O   UNL     1     -11.688  -0.633 -32.904  1.00  0.00    -0.504 OA
ATOM     31  H   UNL     1     -12.279  -0.138 -32.302  1.00  0.00     0.293 HD
ENDBRANCH  27  30
ENDBRANCH  21  22
ENDBRANCH  18  20
ENDBRANCH   1  18
TORSDOF 12
ENDMDL
MODEL 7
REMARK VINA RESULT:      -7.6      2.759      6.212
REMARK SMILES O=C(C=Cc1ccc(O)c(O)c1)O[C@@H](Cc1ccc(O)c(O)c1)C(=O)O
REMARK SMILES IDX 13 1 14 2 15 3 16 4 17 5 18 6 19 7 23 8 21 9 20 10 22 12
REMARK SMILES IDX 24 14 25 15 26 16 2 18 1 19 3 20 4 21 5 22 12 23 6 24 10 25
REMARK SMILES IDX 7 26 8 27 11 28 9 30
REMARK H PARENT 20 11 22 13 26 17 11 29 9 31
ROOT
ATOM      1  O   UNL     1      -6.025  -0.123 -29.413  1.00  0.00    -0.447 OA
ENDROOT
BRANCH   1   2
ATOM      2  C   UNL     1      -5.447   0.807 -30.356  1.00  0.00     0.290 C 
BRANCH   2   3
ATOM      3  C   UNL     1      -6.466   1.855 -30.829  1.00  0.00     0.093 C 
BRANCH   3   4
ATOM      4  C   UNL     1      -7.619   1.271 -31.617  1.00  0.00    -0.040 A 
ATOM      5  C   UNL     1      -7.500   1.054 -33.002  1.00  0.00     0.008 A 
ATOM      6  C   UNL     1      -8.572   0.548 -33.743  1.00  0.00     0.050 A 
ATOM      7  C   UNL     1      -9.767   0.260 -33.096  1.00  0.00     0.157 A 
ATOM      8  C   UNL     1      -8.830   0.965 -30.981  1.00  0.00     0.054 A 
ATOM      9  C   UNL     1      -9.891   0.470 -31.725  1.00  0.00     0.157 A 
BRANCH   7  10
ATOM     10  O   UNL     1     -10.852  -0.231 -33.765  1.00  0.00    -0.504 OA
ATOM     11  H   UNL     1     -10.594  -1.070 -34.185  1.00  0.00     0.293 HD
ENDBRANCH   7  10
BRANCH   9  12
ATOM     12  O   UNL     1     -11.071   0.192 -31.096  1.00  0.00    -0.504 OA
ATOM     13  H   UNL     1     -10.962   0.569 -30.199  1.00  0.00     0.293 HD
ENDBRANCH   9  12
ENDBRANCH   3   4
ENDBRANCH   2   3
BRANCH   2  14
ATOM     14  C   UNL     1      -4.247   1.488 -29.703  1.00  0.00     0.345 C 
ATOM     15  O   UNL     1      -4.248   2.638 -29.289  1.00  0.00    -0.248 OA
BRANCH  14  16
ATOM     16  O   UNL     1      -3.158   0.685 -29.609  1.00  0.00    -0.478 OA
ATOM     17  H   UNL     1      -2.510   1.075 -28.983  1.00  0.00     0.296 HD
ENDBRANCH  14  16
ENDBRANCH   2  14
ENDBRANCH   1   2
BRANCH   1  18
ATOM     18  C   UNL     1      -5.869  -1.431 -29.740  1.00  0.00     0.331 C 
ATOM     19  O   UNL     1      -4.965  -1.904 -30.405  1.00  0.00    -0.247 OA
BRANCH  18  20
ATOM     20  C   UNL     1      -6.995  -2.188 -29.161  1.00  0.00     0.094 C 
ATOM     21  C   UNL     1      -7.616  -3.122 -29.899  1.00  0.00     0.016 C 
BRANCH  21  22
ATOM     22  C   UNL     1      -8.740  -3.932 -29.411  1.00  0.00    -0.021 A 
ATOM     23  C   UNL     1      -9.467  -4.701 -30.335  1.00  0.00     0.058 A 
ATOM     24  C   UNL     1      -9.139  -3.920 -28.063  1.00  0.00     0.012 A 
ATOM     25  C   UNL     1     -10.549  -5.459 -29.899  1.00  0.00     0.157 A 
ATOM     26  C   UNL     1     -10.227  -4.686 -27.635  1.00  0.00     0.051 A 
ATOM     27  C   UNL     1     -10.920  -5.452 -28.558  1.00  0.00     0.157 A 
BRANCH  25  28
ATOM     28  O   UNL     1     -11.284  -6.230 -30.757  1.00  0.00    -0.504 OA
ATOM     29  H   UNL     1     -11.136  -7.165 -30.531  1.00  0.00     0.293 HD
ENDBRANCH  25  28
BRANCH  27  30
ATOM     30  O   UNL     1     -11.984  -6.199 -28.141  1.00  0.00    -0.504 OA
ATOM     31  H   UNL     1     -12.153  -6.820 -28.877  1.00  0.00     0.293 HD
ENDBRANCH  27  30
ENDBRANCH  21  22
ENDBRANCH  18  20
ENDBRANCH   1  18
TORSDOF 12
ENDMDL
MODEL 8
REMARK VINA RESULT:      -7.5      2.550      6.010
REMARK SMILES O=C(C=Cc1ccc(O)c(O)c1)O[C@@H](Cc1ccc(O)c(O)c1)C(=O)O
REMARK SMILES IDX 13 1 14 2 15 3 16 4 17 5 18 6 19 7 23 8 21 9 20 10 22 12
REMARK SMILES IDX 24 14 25 15 26 16 2 18 1 19 3 20 4 21 5 22 12 23 6 24 10 25
REMARK SMILES IDX 7 26 8 27 11 28 9 30
REMARK H PARENT 20 11 22 13 26 17 11 29 9 31
ROOT
ATOM      1  O   UNL     1      -5.682   0.263 -29.276  1.00  0.00    -0.447 OA
ENDROOT
BRANCH   1   2
ATOM      2  C   UNL     1      -5.525  -0.054 -30.678  1.00  0.00     0.290 C 
BRANCH   2   3
ATOM      3  C   UNL     1      -6.300   0.920 -31.578  1.00  0.00     0.093 C 
BRANCH   3   4
ATOM      4  C   UNL     1      -7.734   0.506 -31.831  1.00  0.00    -0.040 A 
ATOM      5  C   UNL     1      -8.132  -0.832 -31.654  1.00  0.00     0.008 A 
ATOM      6  C   UNL     1      -9.445  -1.230 -31.919  1.00  0.00     0.050 A 
ATOM      7  C   UNL     1     -10.363  -0.287 -32.365  1.00  0.00     0.157 A 
ATOM      8  C   UNL     1      -8.677   1.444 -32.273  1.00  0.00     0.054 A 
ATOM      9  C   UNL     1      -9.977   1.039 -32.541  1.00  0.00     0.157 A 
BRANCH   7  10
ATOM     10  O   UNL     1     -11.659  -0.616 -32.647  1.00  0.00    -0.504 OA
ATOM     11  H   UNL     1     -11.675  -1.062 -33.511  1.00  0.00     0.293 HD
ENDBRANCH   7  10
BRANCH   9  12
ATOM     12  O   UNL     1     -10.881   1.959 -32.986  1.00  0.00    -0.504 OA
ATOM     13  H   UNL     1     -10.600   2.798 -32.567  1.00  0.00     0.293 HD
ENDBRANCH   9  12
ENDBRANCH   3   4
ENDBRANCH   2   3
BRANCH   2  14
ATOM     14  C   UNL     1      -4.039  -0.032 -31.024  1.00  0.00     0.345 C 
ATOM     15  O   UNL     1      -3.432  -0.972 -31.517  1.00  0.00    -0.248 OA
BRANCH  14  16
ATOM     16  O   UNL     1      -3.439   1.152 -30.744  1.00  0.00    -0.478 OA
ATOM     17  H   UNL     1      -3.935   1.886 -31.166  1.00  0.00     0.296 HD
ENDBRANCH  14  16
ENDBRANCH   2  14
ENDBRANCH   1   2
BRANCH   1  18
ATOM     18  C   UNL     1      -5.566  -0.799 -28.439  1.00  0.00     0.331 C 
ATOM     19  O   UNL     1      -4.834  -0.875 -27.469  1.00  0.00    -0.247 OA
BRANCH  18  20
ATOM     20  C   UNL     1      -6.473  -1.861 -28.915  1.00  0.00     0.094 C 
ATOM     21  C   UNL     1      -7.531  -2.213 -28.168  1.00  0.00     0.016 C 
BRANCH  21  22
ATOM     22  C   UNL     1      -8.495  -3.252 -28.557  1.00  0.00    -0.021 A 
ATOM     23  C   UNL     1      -9.610  -3.478 -27.734  1.00  0.00     0.058 A 
ATOM     24  C   UNL     1      -8.306  -4.056 -29.695  1.00  0.00     0.012 A 
ATOM     25  C   UNL     1     -10.524  -4.471 -28.071  1.00  0.00     0.157 A 
ATOM     26  C   UNL     1      -9.231  -5.051 -30.025  1.00  0.00     0.051 A 
ATOM     27  C   UNL     1     -10.335  -5.246 -29.211  1.00  0.00     0.157 A 
BRANCH  25  28
ATOM     28  O   UNL     1     -11.630  -4.725 -27.308  1.00  0.00    -0.504 OA
ATOM     29  H   UNL     1     -11.460  -5.524 -26.779  1.00  0.00     0.293 HD
ENDBRANCH  25  28
BRANCH  27  30
ATOM     30  O   UNL     1     -11.237  -6.219 -29.533  1.00  0.00    -0.504 OA
ATOM     31  H   UNL     1     -11.974  -5.738 -29.960  1.00  0.00     0.293 HD
ENDBRANCH  27  30
ENDBRANCH  21  22
ENDBRANCH  18  20
ENDBRANCH   1  18
TORSDOF 12
ENDMDL
MODEL 9
REMARK VINA RESULT:      -7.5      1.962      6.826
REMARK SMILES O=C(C=Cc1ccc(O)c(O)c1)O[C@@H](Cc1ccc(O)c(O)c1)C(=O)O
REMARK SMILES IDX 13 1 14 2 15 3 16 4 17 5 18 6 19 7 23 8 21 9 20 10 22 12
REMARK SMILES IDX 24 14 25 15 26 16 2 18 1 19 3 20 4 21 5 22 12 23 6 24 10 25
REMARK SMILES IDX 7 26 8 27 11 28 9 30
REMARK H PARENT 20 11 22 13 26 17 11 29 9 31
ROOT
ATOM      1  O   UNL     1      -3.081   0.059 -29.848  1.00  0.00    -0.447 OA
ENDROOT
BRANCH   1   2
ATOM      2  C   UNL     1      -3.605   0.583 -28.606  1.00  0.00     0.290 C 
BRANCH   2   3
ATOM      3  C   UNL     1      -3.792  -0.517 -27.550  1.00  0.00     0.093 C 
BRANCH   3   4
ATOM      4  C   UNL     1      -5.129  -0.459 -26.842  1.00  0.00    -0.040 A 
ATOM      5  C   UNL     1      -6.167   0.347 -27.342  1.00  0.00     0.008 A 
ATOM      6  C   UNL     1      -7.393   0.433 -26.674  1.00  0.00     0.050 A 
ATOM      7  C   UNL     1      -7.578  -0.288 -25.502  1.00  0.00     0.157 A 
ATOM      8  C   UNL     1      -5.339  -1.186 -25.661  1.00  0.00     0.054 A 
ATOM      9  C   UNL     1      -6.555  -1.090 -25.002  1.00  0.00     0.157 A 
BRANCH   7  10
ATOM     10  O   UNL     1      -8.750  -0.241 -24.800  1.00  0.00    -0.504 OA
ATOM     11  H   UNL     1      -8.665   0.447 -24.118  1.00  0.00     0.293 HD
ENDBRANCH   7  10
BRANCH   9  12
ATOM     12  O   UNL     1      -6.740  -1.790 -23.845  1.00  0.00    -0.504 OA
ATOM     13  H   UNL     1      -6.132  -1.367 -23.205  1.00  0.00     0.293 HD
ENDBRANCH   9  12
ENDBRANCH   3   4
ENDBRANCH   2   3
BRANCH   2  14
ATOM     14  C   UNL     1      -2.659   1.663 -28.089  1.00  0.00     0.345 C 
ATOM     15  O   UNL     1      -2.898   2.862 -28.118  1.00  0.00    -0.248 OA
BRANCH  14  16
ATOM     16  O   UNL     1      -1.508   1.167 -27.571  1.00  0.00    -0.478 OA
ATOM     17  H   UNL     1      -1.636   0.229 -27.311  1.00  0.00     0.296 HD
ENDBRANCH  14  16
ENDBRANCH   2  14
ENDBRANCH   1   2
BRANCH   1  18
ATOM     18  C   UNL     1      -3.899  -0.817 -30.483  1.00  0.00     0.331 C 
ATOM     19  O   UNL     1      -3.723  -2.017 -30.593  1.00  0.00    -0.247 OA
BRANCH  18  20
ATOM     20  C   UNL     1      -5.042  -0.064 -31.033  1.00  0.00     0.094 C 
ATOM     21  C   UNL     1      -6.276  -0.587 -30.967  1.00  0.00     0.016 C 
BRANCH  21  22
ATOM     22  C   UNL     1      -7.477   0.087 -31.479  1.00  0.00    -0.021 A 
ATOM     23  C   UNL     1      -8.709  -0.166 -30.855  1.00  0.00     0.058 A 
ATOM     24  C   UNL     1      -7.436   0.932 -32.601  1.00  0.00     0.012 A 
ATOM     25  C   UNL     1      -9.863   0.443 -31.336  1.00  0.00     0.157 A 
ATOM     26  C   UNL     1      -8.601   1.541 -33.077  1.00  0.00     0.051 A 
ATOM     27  C   UNL     1      -9.804   1.293 -32.436  1.00  0.00     0.157 A 
BRANCH  25  28
ATOM     28  O   UNL     1     -11.086   0.236 -30.759  1.00  0.00    -0.504 OA
ATOM     29  H   UNL     1     -11.603   1.056 -30.835  1.00  0.00     0.293 HD
ENDBRANCH  25  28
BRANCH  27  30
ATOM     30  O   UNL     1     -10.943   1.887 -32.902  1.00  0.00    -0.504 OA
ATOM     31  H   UNL     1     -11.229   1.320 -33.645  1.00  0.00     0.293 HD
ENDBRANCH  27  30
ENDBRANCH  21  22
ENDBRANCH  18  20
ENDBRANCH   1  18
TORSDOF 12
ENDMDL
MODEL 10
REMARK VINA RESULT:      -7.5      2.503      5.079
REMARK SMILES O=C(C=Cc1ccc(O)c(O)c1)O[C@@H](Cc1ccc(O)c(O)c1)C(=O)O
REMARK SMILES IDX 13 1 14 2 15 3 16 4 17 5 18 6 19 7 23 8 21 9 20 10 22 12
REMARK SMILES IDX 24 14 25 15 26 16 2 18 1 19 3 20 4 21 5 22 12 23 6 24 10 25
REMARK SMILES IDX 7 26 8 27 11 28 9 30
REMARK H PARENT 20 11 22 13 26 17 11 29 9 31
ROOT
ATOM      1  O   UNL     1      -6.727   0.435 -30.658  1.00  0.00    -0.447 OA
ENDROOT
BRANCH   1   2
ATOM      2  C   UNL     1      -6.776  -0.991 -30.891  1.00  0.00     0.290 C 
BRANCH   2   3
ATOM      3  C   UNL     1      -5.987  -1.774 -29.831  1.00  0.00     0.093 C 
BRANCH   3   4
ATOM      4  C   UNL     1      -4.801  -1.016 -29.271  1.00  0.00    -0.040 A 
ATOM      5  C   UNL     1      -3.635  -0.848 -30.039  1.00  0.00     0.008 A 
ATOM      6  C   UNL     1      -2.523  -0.180 -29.517  1.00  0.00     0.050 A 
ATOM      7  C   UNL     1      -2.579   0.319 -28.222  1.00  0.00     0.157 A 
ATOM      8  C   UNL     1      -4.841  -0.498 -27.969  1.00  0.00     0.054 A 
ATOM      9  C   UNL     1      -3.730   0.157 -27.457  1.00  0.00     0.157 A 
BRANCH   7  10
ATOM     10  O   UNL     1      -1.524   0.975 -27.653  1.00  0.00    -0.504 OA
ATOM     11  H   UNL     1      -1.878   1.692 -27.099  1.00  0.00     0.293 HD
ENDBRANCH   7  10
BRANCH   9  12
ATOM     12  O   UNL     1      -3.776   0.642 -26.181  1.00  0.00    -0.504 OA
ATOM     13  H   UNL     1      -2.893   1.040 -26.041  1.00  0.00     0.293 HD
ENDBRANCH   9  12
ENDBRANCH   3   4
ENDBRANCH   2   3
BRANCH   2  14
ATOM     14  C   UNL     1      -8.236  -1.437 -30.905  1.00  0.00     0.345 C 
ATOM     15  O   UNL     1      -9.173  -0.742 -30.540  1.00  0.00    -0.248 OA
BRANCH  14  16
ATOM     16  O   UNL     1      -8.409  -2.696 -31.380  1.00  0.00    -0.478 OA
ATOM     17  H   UNL     1      -9.005  -3.198 -30.783  1.00  0.00     0.296 HD
ENDBRANCH  14  16
ENDBRANCH   2  14
ENDBRANCH   1   2
BRANCH   1  18
ATOM     18  C   UNL     1      -6.491   1.182 -31.767  1.00  0.00     0.331 C 
ATOM     19  O   UNL     1      -7.029   1.050 -32.852  1.00  0.00    -0.247 OA
BRANCH  18  20
ATOM     20  C   UNL     1      -5.455   2.180 -31.438  1.00  0.00     0.094 C 
ATOM     21  C   UNL     1      -5.432   2.734 -30.216  1.00  0.00     0.016 C 
BRANCH  21  22
ATOM     22  C   UNL     1      -4.438   3.729 -29.791  1.00  0.00    -0.021 A 
ATOM     23  C   UNL     1      -4.108   4.770 -30.673  1.00  0.00     0.058 A 
ATOM     24  C   UNL     1      -3.774   3.639 -28.555  1.00  0.00     0.012 A 
ATOM     25  C   UNL     1      -3.153   5.711 -30.301  1.00  0.00     0.157 A 
ATOM     26  C   UNL     1      -2.817   4.590 -28.189  1.00  0.00     0.051 A 
ATOM     27  C   UNL     1      -2.518   5.621 -29.066  1.00  0.00     0.157 A 
BRANCH  25  28
ATOM     28  O   UNL     1      -2.802   6.748 -31.120  1.00  0.00    -0.504 OA
ATOM     29  H   UNL     1      -3.038   7.582 -30.677  1.00  0.00     0.293 HD
ENDBRANCH  25  28
BRANCH  27  30
ATOM     30  O   UNL     1      -1.582   6.549 -28.709  1.00  0.00    -0.504 OA
ATOM     31  H   UNL     1      -1.151   6.798 -29.551  1.00  0.00     0.293 HD
ENDBRANCH  27  30
ENDBRANCH  21  22
ENDBRANCH  18  20
ENDBRANCH   1  18
TORSDOF 12
ENDMDL
