MODEL 1
REMARK VINA RESULT:      -6.3      0.000      0.000
REMARK SMILES O=C(O)/C=C/c1ccccc1O
REMARK SMILES IDX 5 1 4 2 6 3 8 4 7 5 9 6 10 7 11 8 12 9 2 11 1 12 3 13
REMARK H PARENT 12 10 3 14
ROOT
ATOM      1  C   UNL     1       5.998  -2.519 -20.724  1.00  0.00     0.019 C 
ATOM      2  C   UNL     1       5.418  -1.721 -21.634  1.00  0.00     0.094 C 
ENDROOT
BRANCH   1   3
ATOM      3  C   UNL     1       6.549  -2.005 -19.463  1.00  0.00     0.017 A 
ATOM      4  C   UNL     1       7.854  -0.283 -18.344  1.00  0.00     0.001 A 
ATOM      5  C   UNL     1       7.324  -0.837 -19.513  1.00  0.00     0.012 A 
ATOM      6  C   UNL     1       7.615  -0.890 -17.111  1.00  0.00     0.004 A 
ATOM      7  C   UNL     1       6.861  -2.059 -17.047  1.00  0.00     0.047 A 
ATOM      8  C   UNL     1       6.350  -2.619 -18.217  1.00  0.00     0.122 A 
BRANCH   8   9
ATOM      9  O   UNL     1       5.673  -3.800 -18.080  1.00  0.00    -0.507 OA
ATOM     10  H   UNL     1       6.211  -4.491 -18.506  1.00  0.00     0.293 HD
ENDBRANCH   8   9
ENDBRANCH   1   3
BRANCH   2  11
ATOM     11  C   UNL     1       4.911  -2.306 -22.890  1.00  0.00     0.328 C 
ATOM     12  O   UNL     1       4.183  -3.281 -22.954  1.00  0.00    -0.247 OA
BRANCH  11  13
ATOM     13  O   UNL     1       5.329  -1.621 -23.972  1.00  0.00    -0.478 OA
ATOM     14  H   UNL     1       5.067  -1.991 -24.834  1.00  0.00     0.297 HD
ENDBRANCH  11  13
ENDBRANCH   2  11
TORSDOF 4
ENDMDL
MODEL 2
REMARK VINA RESULT:      -6.2      4.859      6.542
REMARK SMILES O=C(O)/C=C/c1ccccc1O
REMARK SMILES IDX 5 1 4 2 6 3 8 4 7 5 9 6 10 7 11 8 12 9 2 11 1 12 3 13
REMARK H PARENT 12 10 3 14
ROOT
ATOM      1  C   UNL     1       5.442   0.060 -25.812  1.00  0.00     0.019 C 
ATOM      2  C   UNL     1       5.476  -0.252 -27.118  1.00  0.00     0.094 C 
ENDROOT
BRANCH   1   3
ATOM      3  C   UNL     1       4.821  -0.815 -24.809  1.00  0.00     0.017 A 
ATOM      4  C   UNL     1       5.134  -2.334 -22.935  1.00  0.00     0.001 A 
ATOM      5  C   UNL     1       5.665  -1.507 -23.929  1.00  0.00     0.012 A 
ATOM      6  C   UNL     1       3.753  -2.477 -22.807  1.00  0.00     0.004 A 
ATOM      7  C   UNL     1       2.902  -1.809 -23.683  1.00  0.00     0.047 A 
ATOM      8  C   UNL     1       3.435  -1.000 -24.685  1.00  0.00     0.122 A 
BRANCH   8   9
ATOM      9  O   UNL     1       2.538  -0.426 -25.545  1.00  0.00    -0.507 OA
ATOM     10  H   UNL     1       3.011   0.272 -26.032  1.00  0.00     0.293 HD
ENDBRANCH   8   9
ENDBRANCH   1   3
BRANCH   2  11
ATOM     11  C   UNL     1       6.094   0.690 -28.070  1.00  0.00     0.328 C 
ATOM     12  O   UNL     1       5.798   0.773 -29.250  1.00  0.00    -0.247 OA
BRANCH  11  13
ATOM     13  O   UNL     1       7.016   1.475 -27.481  1.00  0.00    -0.478 OA
ATOM     14  H   UNL     1       6.705   1.992 -26.716  1.00  0.00     0.297 HD
ENDBRANCH  11  13
ENDBRANCH   2  11
TORSDOF 4
ENDMDL
MODEL 3
REMARK VINA RESULT:      -6.0      3.463      5.639
REMARK SMILES O=C(O)/C=C/c1ccccc1O
REMARK SMILES IDX 5 1 4 2 6 3 8 4 7 5 9 6 10 7 11 8 12 9 2 11 1 12 3 13
REMARK H PARENT 12 10 3 14
ROOT
ATOM      1  C   UNL     1       7.512   0.242 -17.327  1.00  0.00     0.019 C 
ATOM      2  C   UNL     1       8.677   0.246 -16.660  1.00  0.00     0.094 C 
ENDROOT
BRANCH   1   3
ATOM      3  C   UNL     1       7.005  -0.950 -18.019  1.00  0.00     0.017 A 
ATOM      4  C   UNL     1       6.855  -2.209 -20.096  1.00  0.00     0.001 A 
ATOM      5  C   UNL     1       7.286  -1.084 -19.387  1.00  0.00     0.012 A 
ATOM      6  C   UNL     1       6.138  -3.213 -19.446  1.00  0.00     0.004 A 
ATOM      7  C   UNL     1       5.837  -3.087 -18.092  1.00  0.00     0.047 A 
ATOM      8  C   UNL     1       6.253  -1.956 -17.393  1.00  0.00     0.122 A 
BRANCH   8   9
ATOM      9  O   UNL     1       5.866  -1.875 -16.082  1.00  0.00    -0.507 OA
ATOM     10  H   UNL     1       5.176  -2.548 -15.943  1.00  0.00     0.293 HD
ENDBRANCH   8   9
ENDBRANCH   1   3
BRANCH   2  11
ATOM     11  C   UNL     1       9.134   1.490 -16.012  1.00  0.00     0.328 C 
ATOM     12  O   UNL     1      10.286   1.714 -15.682  1.00  0.00    -0.247 OA
BRANCH  11  13
ATOM     13  O   UNL     1       8.130   2.372 -15.845  1.00  0.00    -0.478 OA
ATOM     14  H   UNL     1       8.398   3.279 -15.609  1.00  0.00     0.297 HD
ENDBRANCH  11  13
ENDBRANCH   2  11
TORSDOF 4
ENDMDL
MODEL 4
REMARK VINA RESULT:      -5.9     12.616     14.400
REMARK SMILES O=C(O)/C=C/c1ccccc1O
REMARK SMILES IDX 5 1 4 2 6 3 8 4 7 5 9 6 10 7 11 8 12 9 2 11 1 12 3 13
REMARK H PARENT 12 10 3 14
ROOT
ATOM      1  C   UNL     1      -3.481 -10.525 -27.547  1.00  0.00     0.019 C 
ATOM      2  C   UNL     1      -4.377 -10.418 -26.553  1.00  0.00     0.094 C 
ENDROOT
BRANCH   1   3
ATOM      3  C   UNL     1      -2.076 -10.127 -27.388  1.00  0.00     0.017 A 
ATOM      4  C   UNL     1      -0.482  -8.326 -27.024  1.00  0.00     0.001 A 
ATOM      5  C   UNL     1      -1.796  -8.764 -27.208  1.00  0.00     0.012 A 
ATOM      6  C   UNL     1       0.568  -9.243 -27.017  1.00  0.00     0.004 A 
ATOM      7  C   UNL     1       0.308 -10.598 -27.210  1.00  0.00     0.047 A 
ATOM      8  C   UNL     1      -1.001 -11.029 -27.412  1.00  0.00     0.122 A 
BRANCH   8   9
ATOM      9  O   UNL     1      -1.171 -12.366 -27.657  1.00  0.00    -0.507 OA
ATOM     10  H   UNL     1      -1.524 -12.450 -28.560  1.00  0.00     0.293 HD
ENDBRANCH   8   9
ENDBRANCH   1   3
BRANCH   2  11
ATOM     11  C   UNL     1      -5.777 -10.813 -26.796  1.00  0.00     0.328 C 
ATOM     12  O   UNL     1      -6.280 -11.853 -26.406  1.00  0.00    -0.247 OA
BRANCH  11  13
ATOM     13  O   UNL     1      -6.455  -9.875 -27.485  1.00  0.00    -0.478 OA
ATOM     14  H   UNL     1      -7.337  -9.649 -27.138  1.00  0.00     0.297 HD
ENDBRANCH  11  13
ENDBRANCH   2  11
TORSDOF 4
ENDMDL
MODEL 5
REMARK VINA RESULT:      -5.9     12.056     13.450
REMARK SMILES O=C(O)/C=C/c1ccccc1O
REMARK SMILES IDX 5 1 4 2 6 3 8 4 7 5 9 6 10 7 11 8 12 9 2 11 1 12 3 13
REMARK H PARENT 12 10 3 14
ROOT
ATOM      1  C   UNL     1      -1.211 -10.256 -27.287  1.00  0.00     0.019 C 
ATOM      2  C   UNL     1      -2.540 -10.281 -27.099  1.00  0.00     0.094 C 
ENDROOT
BRANCH   1   3
ATOM      3  C   UNL     1      -0.275 -10.955 -26.396  1.00  0.00     0.017 A 
ATOM      4  C   UNL     1       1.333 -10.796 -24.578  1.00  0.00     0.001 A 
ATOM      5  C   UNL     1       0.447 -10.187 -25.471  1.00  0.00     0.012 A 
ATOM      6  C   UNL     1       1.507 -12.179 -24.598  1.00  0.00     0.004 A 
ATOM      7  C   UNL     1       0.809 -12.954 -25.521  1.00  0.00     0.047 A 
ATOM      8  C   UNL     1      -0.059 -12.341 -26.423  1.00  0.00     0.122 A 
BRANCH   8   9
ATOM      9  O   UNL     1      -0.661 -13.160 -27.340  1.00  0.00    -0.507 OA
ATOM     10  H   UNL     1      -0.190 -13.043 -28.184  1.00  0.00     0.293 HD
ENDBRANCH   8   9
ENDBRANCH   1   3
BRANCH   2  11
ATOM     11  C   UNL     1      -3.415  -9.532 -28.020  1.00  0.00     0.328 C 
ATOM     12  O   UNL     1      -3.033  -8.659 -28.780  1.00  0.00    -0.247 OA
BRANCH  11  13
ATOM     13  O   UNL     1      -4.696  -9.941 -27.946  1.00  0.00    -0.478 OA
ATOM     14  H   UNL     1      -5.354  -9.244 -27.774  1.00  0.00     0.297 HD
ENDBRANCH  11  13
ENDBRANCH   2  11
TORSDOF 4
ENDMDL
MODEL 6
REMARK VINA RESULT:      -5.8     12.330     13.478
REMARK SMILES O=C(O)/C=C/c1ccccc1O
REMARK SMILES IDX 5 1 4 2 6 3 8 4 7 5 9 6 10 7 11 8 12 9 2 11 1 12 3 13
REMARK H PARENT 12 10 3 14
ROOT
ATOM      1  C   UNL     1      -4.086  -0.173 -26.636  1.00  0.00     0.019 C 
ATOM      2  C   UNL     1      -5.074  -0.955 -26.171  1.00  0.00     0.094 C 
ENDROOT
BRANCH   1   3
ATOM      3  C   UNL     1      -3.545  -0.310 -27.994  1.00  0.00     0.017 A 
ATOM      4  C   UNL     1      -3.794  -1.270 -30.216  1.00  0.00     0.001 A 
ATOM      5  C   UNL     1      -4.243  -1.122 -28.900  1.00  0.00     0.012 A 
ATOM      6  C   UNL     1      -2.643  -0.609 -30.641  1.00  0.00     0.004 A 
ATOM      7  C   UNL     1      -1.930   0.189 -29.749  1.00  0.00     0.047 A 
ATOM      8  C   UNL     1      -2.370   0.320 -28.434  1.00  0.00     0.122 A 
BRANCH   8   9
ATOM      9  O   UNL     1      -1.583   1.069 -27.601  1.00  0.00    -0.507 OA
ATOM     10  H   UNL     1      -1.840   2.000 -27.724  1.00  0.00     0.293 HD
ENDBRANCH   8   9
ENDBRANCH   1   3
BRANCH   2  11
ATOM     11  C   UNL     1      -5.547  -0.776 -24.785  1.00  0.00     0.328 C 
ATOM     12  O   UNL     1      -6.265  -1.564 -24.193  1.00  0.00    -0.247 OA
BRANCH  11  13
ATOM     13  O   UNL     1      -5.072   0.355 -24.231  1.00  0.00    -0.478 OA
ATOM     14  H   UNL     1      -5.170   1.163 -24.766  1.00  0.00     0.297 HD
ENDBRANCH  11  13
ENDBRANCH   2  11
TORSDOF 4
ENDMDL
MODEL 7
REMARK VINA RESULT:      -5.7     12.502     13.878
REMARK SMILES O=C(O)/C=C/c1ccccc1O
REMARK SMILES IDX 5 1 4 2 6 3 8 4 7 5 9 6 10 7 11 8 12 9 2 11 1 12 3 13
REMARK H PARENT 12 10 3 14
ROOT
ATOM      1  C   UNL     1       0.007 -10.980 -26.534  1.00  0.00     0.019 C 
ATOM      2  C   UNL     1      -0.114 -12.234 -26.071  1.00  0.00     0.094 C 
ENDROOT
BRANCH   1   3
ATOM      3  C   UNL     1      -1.133 -10.225 -27.072  1.00  0.00     0.017 A 
ATOM      4  C   UNL     1      -3.464 -10.246 -27.766  1.00  0.00     0.001 A 
ATOM      5  C   UNL     1      -2.336 -10.915 -27.282  1.00  0.00     0.012 A 
ATOM      6  C   UNL     1      -3.403  -8.882 -28.046  1.00  0.00     0.004 A 
ATOM      7  C   UNL     1      -2.212  -8.187 -27.857  1.00  0.00     0.047 A 
ATOM      8  C   UNL     1      -1.084  -8.860 -27.392  1.00  0.00     0.122 A 
BRANCH   8   9
ATOM      9  O   UNL     1       0.066  -8.123 -27.291  1.00  0.00    -0.507 OA
ATOM     10  H   UNL     1       0.162  -7.625 -28.122  1.00  0.00     0.293 HD
ENDBRANCH   8   9
ENDBRANCH   1   3
BRANCH   2  11
ATOM     11  C   UNL     1       1.082 -12.938 -25.571  1.00  0.00     0.328 C 
ATOM     12  O   UNL     1       1.840 -13.592 -26.266  1.00  0.00    -0.247 OA
BRANCH  11  13
ATOM     13  O   UNL     1       1.260 -12.757 -24.248  1.00  0.00    -0.478 OA
ATOM     14  H   UNL     1       1.649 -11.904 -23.986  1.00  0.00     0.297 HD
ENDBRANCH  11  13
ENDBRANCH   2  11
TORSDOF 4
ENDMDL
MODEL 8
REMARK VINA RESULT:      -5.7     15.909     18.441
REMARK SMILES O=C(O)/C=C/c1ccccc1O
REMARK SMILES IDX 5 1 4 2 6 3 8 4 7 5 9 6 10 7 11 8 12 9 2 11 1 12 3 13
REMARK H PARENT 12 10 3 14
ROOT
ATOM      1  C   UNL     1      -8.329   0.351 -32.013  1.00  0.00     0.019 C 
ATOM      2  C   UNL     1      -8.833   0.899 -33.131  1.00  0.00     0.094 C 
ENDROOT
BRANCH   1   3
ATOM      3  C   UNL     1      -6.891   0.353 -31.713  1.00  0.00     0.017 A 
ATOM      4  C   UNL     1      -4.738   1.451 -31.992  1.00  0.00     0.001 A 
ATOM      5  C   UNL     1      -6.108   1.379 -32.262  1.00  0.00     0.012 A 
ATOM      6  C   UNL     1      -4.136   0.500 -31.170  1.00  0.00     0.004 A 
ATOM      7  C   UNL     1      -4.897  -0.533 -30.630  1.00  0.00     0.047 A 
ATOM      8  C   UNL     1      -6.259  -0.613 -30.916  1.00  0.00     0.122 A 
BRANCH   8   9
ATOM      9  O   UNL     1      -6.927  -1.691 -30.400  1.00  0.00    -0.507 OA
ATOM     10  H   UNL     1      -6.910  -2.391 -31.077  1.00  0.00     0.293 HD
ENDBRANCH   8   9
ENDBRANCH   1   3
BRANCH   2  11
ATOM     11  C   UNL     1     -10.286   0.834 -33.376  1.00  0.00     0.328 C 
ATOM     12  O   UNL     1     -10.867  -0.135 -33.832  1.00  0.00    -0.247 OA
BRANCH  11  13
ATOM     13  O   UNL     1     -10.912   1.971 -33.014  1.00  0.00    -0.478 OA
ATOM     14  H   UNL     1     -10.573   2.788 -33.420  1.00  0.00     0.297 HD
ENDBRANCH  11  13
ENDBRANCH   2  11
TORSDOF 4
ENDMDL
MODEL 9
REMARK VINA RESULT:      -5.7      2.877      4.134
REMARK SMILES O=C(O)/C=C/c1ccccc1O
REMARK SMILES IDX 5 1 4 2 6 3 8 4 7 5 9 6 10 7 11 8 12 9 2 11 1 12 3 13
REMARK H PARENT 12 10 3 14
ROOT
ATOM      1  C   UNL     1       7.355  -0.676 -17.983  1.00  0.00     0.019 C 
ATOM      2  C   UNL     1       7.744  -1.471 -18.993  1.00  0.00     0.094 C 
ENDROOT
BRANCH   1   3
ATOM      3  C   UNL     1       8.311  -0.044 -17.065  1.00  0.00     0.017 A 
ATOM      4  C   UNL     1      10.402  -0.224 -15.835  1.00  0.00     0.001 A 
ATOM      5  C   UNL     1       9.442  -0.781 -16.685  1.00  0.00     0.012 A 
ATOM      6  C   UNL     1      10.244   1.075 -15.355  1.00  0.00     0.004 A 
ATOM      7  C   UNL     1       9.118   1.814 -15.711  1.00  0.00     0.047 A 
ATOM      8  C   UNL     1       8.154   1.250 -16.543  1.00  0.00     0.122 A 
BRANCH   8   9
ATOM      9  O   UNL     1       7.047   2.014 -16.797  1.00  0.00    -0.507 OA
ATOM     10  H   UNL     1       6.578   1.603 -17.545  1.00  0.00     0.293 HD
ENDBRANCH   8   9
ENDBRANCH   1   3
BRANCH   2  11
ATOM     11  C   UNL     1       6.723  -2.092 -19.858  1.00  0.00     0.328 C 
ATOM     12  O   UNL     1       6.025  -1.484 -20.650  1.00  0.00    -0.247 OA
BRANCH  11  13
ATOM     13  O   UNL     1       6.663  -3.427 -19.691  1.00  0.00    -0.478 OA
ATOM     14  H   UNL     1       5.823  -3.773 -19.338  1.00  0.00     0.297 HD
ENDBRANCH  11  13
ENDBRANCH   2  11
TORSDOF 4
ENDMDL
MODEL 10
REMARK VINA RESULT:      -5.7     15.829     18.489
REMARK SMILES O=C(O)/C=C/c1ccccc1O
REMARK SMILES IDX 5 1 4 2 6 3 8 4 7 5 9 6 10 7 11 8 12 9 2 11 1 12 3 13
REMARK H PARENT 12 10 3 14
ROOT
ATOM      1  C   UNL     1      -8.459  -0.485 -32.331  1.00  0.00     0.019 C 
ATOM      2  C   UNL     1      -9.436   0.376 -32.004  1.00  0.00     0.094 C 
ENDROOT
BRANCH   1   3
ATOM      3  C   UNL     1      -7.364  -0.822 -31.412  1.00  0.00     0.017 A 
ATOM      4  C   UNL     1      -6.513  -2.324 -29.698  1.00  0.00     0.001 A 
ATOM      5  C   UNL     1      -7.529  -1.936 -30.576  1.00  0.00     0.012 A 
ATOM      6  C   UNL     1      -5.320  -1.604 -29.646  1.00  0.00     0.004 A 
ATOM      7  C   UNL     1      -5.147  -0.486 -30.459  1.00  0.00     0.047 A 
ATOM      8  C   UNL     1      -6.170  -0.091 -31.319  1.00  0.00     0.122 A 
BRANCH   8   9
ATOM      9  O   UNL     1      -5.951   1.052 -32.040  1.00  0.00    -0.507 OA
ATOM     10  H   UNL     1      -6.816   1.477 -32.175  1.00  0.00     0.293 HD
ENDBRANCH   8   9
ENDBRANCH   1   3
BRANCH   2  11
ATOM     11  C   UNL     1     -10.488   0.685 -32.991  1.00  0.00     0.328 C 
ATOM     12  O   UNL     1     -10.969  -0.124 -33.764  1.00  0.00    -0.247 OA
BRANCH  11  13
ATOM     13  O   UNL     1     -10.880   1.972 -32.926  1.00  0.00    -0.478 OA
ATOM     14  H   UNL     1     -10.166   2.629 -32.843  1.00  0.00     0.297 HD
ENDBRANCH  11  13
ENDBRANCH   2  11
TORSDOF 4
ENDMDL
