MODEL 1
REMARK VINA RESULT:      -5.1      0.000      0.000
REMARK SMILES C=CCS[C@H](N)C(=O)O
REMARK SMILES IDX 5 1 4 2 3 3 2 4 1 5 7 6 8 7 9 8 6 10
REMARK H PARENT 9 9 6 11 6 12
ROOT
ATOM      1  C   UNL     1      -0.445  -9.935 -26.563  1.00  0.00     0.221 C 
ENDROOT
BRANCH   1   2
ATOM      2  S   UNL     1      -1.744 -10.578 -27.671  1.00  0.00    -0.127 SA
BRANCH   2   3
ATOM      3  C   UNL     1      -2.557  -8.999 -28.072  1.00  0.00     0.098 C 
BRANCH   3   4
ATOM      4  C   UNL     1      -3.686  -8.783 -27.113  1.00  0.00    -0.024 C 
ATOM      5  C   UNL     1      -4.821  -9.495 -27.109  1.00  0.00     0.005 C 
ENDBRANCH   3   4
ENDBRANCH   2   3
ENDBRANCH   1   2
BRANCH   1   6
ATOM      6  C   UNL     1       0.398 -11.086 -25.968  1.00  0.00     0.330 C 
ATOM      7  O   UNL     1       0.389 -12.229 -26.407  1.00  0.00    -0.250 OA
BRANCH   6   8
ATOM      8  O   UNL     1       1.072 -10.758 -24.836  1.00  0.00    -0.479 OA
ATOM      9  H   UNL     1       0.769 -11.313 -24.083  1.00  0.00     0.296 HD
ENDBRANCH   6   8
ENDBRANCH   1   6
BRANCH   1  10
ATOM     10  N   UNL     1       0.419  -9.046 -27.341  1.00  0.00    -0.310 NA
ATOM     11  H   UNL     1       1.390  -9.329 -27.221  1.00  0.00     0.120 HD
ATOM     12  H   UNL     1       0.347  -8.104 -26.953  1.00  0.00     0.120 HD
ENDBRANCH   1  10
TORSDOF 6
ENDMDL
MODEL 2
REMARK VINA RESULT:      -5.0     10.907     11.707
REMARK SMILES C=CCS[C@H](N)C(=O)O
REMARK SMILES IDX 5 1 4 2 3 3 2 4 1 5 7 6 8 7 9 8 6 10
REMARK H PARENT 9 9 6 11 6 12
ROOT
ATOM      1  C   UNL     1       4.039  -1.438 -25.064  1.00  0.00     0.221 C 
ENDROOT
BRANCH   1   2
ATOM      2  S   UNL     1       5.194  -0.092 -25.494  1.00  0.00    -0.127 SA
BRANCH   2   3
ATOM      3  C   UNL     1       5.215  -0.326 -27.300  1.00  0.00     0.098 C 
BRANCH   3   4
ATOM      4  C   UNL     1       6.392   0.407 -27.865  1.00  0.00    -0.024 C 
ATOM      5  C   UNL     1       7.069   1.363 -27.216  1.00  0.00     0.005 C 
ENDBRANCH   3   4
ENDBRANCH   2   3
ENDBRANCH   1   2
BRANCH   1   6
ATOM      6  C   UNL     1       4.450  -2.120 -23.740  1.00  0.00     0.330 C 
ATOM      7  O   UNL     1       3.774  -2.972 -23.178  1.00  0.00    -0.250 OA
BRANCH   6   8
ATOM      8  O   UNL     1       5.578  -1.615 -23.177  1.00  0.00    -0.479 OA
ATOM      9  H   UNL     1       5.842  -0.781 -23.628  1.00  0.00     0.296 HD
ENDBRANCH   6   8
ENDBRANCH   1   6
BRANCH   1  10
ATOM     10  N   UNL     1       2.701  -0.863 -24.926  1.00  0.00    -0.310 NA
ATOM     11  H   UNL     1       2.070  -1.563 -24.540  1.00  0.00     0.120 HD
ATOM     12  H   UNL     1       2.345  -0.643 -25.858  1.00  0.00     0.120 HD
ENDBRANCH   1  10
TORSDOF 6
ENDMDL
MODEL 3
REMARK VINA RESULT:      -4.9     12.834     13.674
REMARK SMILES C=CCS[C@H](N)C(=O)O
REMARK SMILES IDX 5 1 4 2 3 3 2 4 1 5 7 6 8 7 9 8 6 10
REMARK H PARENT 9 9 6 11 6 12
ROOT
ATOM      1  C   UNL     1       7.099  -1.283 -18.787  1.00  0.00     0.221 C 
ENDROOT
BRANCH   1   2
ATOM      2  S   UNL     1       6.509  -2.696 -19.781  1.00  0.00    -0.127 SA
BRANCH   2   3
ATOM      3  C   UNL     1       5.892  -1.768 -21.221  1.00  0.00     0.098 C 
BRANCH   3   4
ATOM      4  C   UNL     1       5.111  -2.701 -22.094  1.00  0.00    -0.024 C 
ATOM      5  C   UNL     1       4.464  -2.330 -23.207  1.00  0.00     0.005 C 
ENDBRANCH   3   4
ENDBRANCH   2   3
ENDBRANCH   1   2
BRANCH   1   6
ATOM      6  C   UNL     1       6.550  -1.351 -17.344  1.00  0.00     0.330 C 
ATOM      7  O   UNL     1       6.742  -0.482 -16.505  1.00  0.00    -0.250 OA
BRANCH   6   8
ATOM      8  O   UNL     1       5.924  -2.518 -17.039  1.00  0.00    -0.479 OA
ATOM      9  H   UNL     1       5.148  -2.349 -16.459  1.00  0.00     0.296 HD
ENDBRANCH   6   8
ENDBRANCH   1   6
BRANCH   1  10
ATOM     10  N   UNL     1       8.562  -1.326 -18.758  1.00  0.00    -0.310 NA
ATOM     11  H   UNL     1       8.908  -1.645 -19.661  1.00  0.00     0.120 HD
ATOM     12  H   UNL     1       8.851  -2.032 -18.078  1.00  0.00     0.120 HD
ENDBRANCH   1  10
TORSDOF 6
ENDMDL
MODEL 4
REMARK VINA RESULT:      -4.8      1.640      2.052
REMARK SMILES C=CCS[C@H](N)C(=O)O
REMARK SMILES IDX 5 1 4 2 3 3 2 4 1 5 7 6 8 7 9 8 6 10
REMARK H PARENT 9 9 6 11 6 12
ROOT
ATOM      1  C   UNL     1      -1.244  -9.849 -26.434  1.00  0.00     0.221 C 
ENDROOT
BRANCH   1   2
ATOM      2  S   UNL     1      -2.559 -10.361 -27.591  1.00  0.00    -0.127 SA
BRANCH   2   3
ATOM      3  C   UNL     1      -3.666  -8.929 -27.384  1.00  0.00     0.098 C 
BRANCH   3   4
ATOM      4  C   UNL     1      -5.018  -9.424 -26.970  1.00  0.00    -0.024 C 
ATOM      5  C   UNL     1      -5.286 -10.691 -26.627  1.00  0.00     0.005 C 
ENDBRANCH   3   4
ENDBRANCH   2   3
ENDBRANCH   1   2
BRANCH   1   6
ATOM      6  C   UNL     1       0.129  -9.798 -27.142  1.00  0.00     0.330 C 
ATOM      7  O   UNL     1       0.767  -8.767 -27.309  1.00  0.00    -0.250 OA
BRANCH   6   8
ATOM      8  O   UNL     1       0.529 -10.982 -27.673  1.00  0.00    -0.479 OA
ATOM      9  H   UNL     1       0.254 -11.046 -28.615  1.00  0.00     0.296 HD
ENDBRANCH   6   8
ENDBRANCH   1   6
BRANCH   1  10
ATOM     10  N   UNL     1      -1.581  -8.521 -25.920  1.00  0.00    -0.310 NA
ATOM     11  H   UNL     1      -1.922  -7.940 -26.683  1.00  0.00     0.120 HD
ATOM     12  H   UNL     1      -0.724  -8.077 -25.584  1.00  0.00     0.120 HD
ENDBRANCH   1  10
TORSDOF 6
ENDMDL
MODEL 5
REMARK VINA RESULT:      -4.8      1.892      2.236
REMARK SMILES C=CCS[C@H](N)C(=O)O
REMARK SMILES IDX 5 1 4 2 3 3 2 4 1 5 7 6 8 7 9 8 6 10
REMARK H PARENT 9 9 6 11 6 12
ROOT
ATOM      1  C   UNL     1       0.401 -11.250 -25.192  1.00  0.00     0.221 C 
ENDROOT
BRANCH   1   2
ATOM      2  S   UNL     1       0.047 -10.599 -26.859  1.00  0.00    -0.127 SA
BRANCH   2   3
ATOM      3  C   UNL     1      -1.055  -9.229 -26.382  1.00  0.00     0.098 C 
BRANCH   3   4
ATOM      4  C   UNL     1      -1.866  -8.828 -27.575  1.00  0.00    -0.024 C 
ATOM      5  C   UNL     1      -2.971  -9.464 -27.986  1.00  0.00     0.005 C 
ENDBRANCH   3   4
ENDBRANCH   2   3
ENDBRANCH   1   2
BRANCH   1   6
ATOM      6  C   UNL     1       0.826 -12.734 -25.254  1.00  0.00     0.330 C 
ATOM      7  O   UNL     1       1.296 -13.263 -26.252  1.00  0.00    -0.250 OA
BRANCH   6   8
ATOM      8  O   UNL     1       0.529 -13.447 -24.137  1.00  0.00    -0.479 OA
ATOM      9  H   UNL     1      -0.031 -12.915 -23.529  1.00  0.00     0.296 HD
ENDBRANCH   6   8
ENDBRANCH   1   6
BRANCH   1  10
ATOM     10  N   UNL     1       1.484 -10.454 -24.613  1.00  0.00    -0.310 NA
ATOM     11  H   UNL     1       1.129  -9.533 -24.362  1.00  0.00     0.120 HD
ATOM     12  H   UNL     1       2.193 -10.298 -25.333  1.00  0.00     0.120 HD
ENDBRANCH   1  10
TORSDOF 6
ENDMDL
MODEL 6
REMARK VINA RESULT:      -4.6      2.661      4.494
REMARK SMILES C=CCS[C@H](N)C(=O)O
REMARK SMILES IDX 5 1 4 2 3 3 2 4 1 5 7 6 8 7 9 8 6 10
REMARK H PARENT 9 9 6 11 6 12
ROOT
ATOM      1  C   UNL     1      -1.253  -9.366 -27.295  1.00  0.00     0.221 C 
ENDROOT
BRANCH   1   2
ATOM      2  S   UNL     1      -0.400 -10.954 -27.013  1.00  0.00    -0.127 SA
BRANCH   2   3
ATOM      3  C   UNL     1       0.533 -10.493 -25.518  1.00  0.00     0.098 C 
BRANCH   3   4
ATOM      4  C   UNL     1       1.052 -11.741 -24.873  1.00  0.00    -0.024 C 
ATOM      5  C   UNL     1       0.746 -12.982 -25.273  1.00  0.00     0.005 C 
ENDBRANCH   3   4
ENDBRANCH   2   3
ENDBRANCH   1   2
BRANCH   1   6
ATOM      6  C   UNL     1      -2.610  -9.582 -28.001  1.00  0.00     0.330 C 
ATOM      7  O   UNL     1      -3.034  -8.857 -28.891  1.00  0.00    -0.250 OA
BRANCH   6   8
ATOM      8  O   UNL     1      -3.359 -10.586 -27.477  1.00  0.00    -0.479 OA
ATOM      9  H   UNL     1      -3.174 -10.687 -26.517  1.00  0.00     0.296 HD
ENDBRANCH   6   8
ENDBRANCH   1   6
BRANCH   1  10
ATOM     10  N   UNL     1      -1.472  -8.730 -25.995  1.00  0.00    -0.310 NA
ATOM     11  H   UNL     1      -2.354  -9.056 -25.604  1.00  0.00     0.120 HD
ATOM     12  H   UNL     1      -1.581  -7.724 -26.141  1.00  0.00     0.120 HD
ENDBRANCH   1  10
TORSDOF 6
ENDMDL
MODEL 7
REMARK VINA RESULT:      -4.6     15.142     16.017
REMARK SMILES C=CCS[C@H](N)C(=O)O
REMARK SMILES IDX 5 1 4 2 3 3 2 4 1 5 7 6 8 7 9 8 6 10
REMARK H PARENT 9 9 6 11 6 12
ROOT
ATOM      1  C   UNL     1       7.448   0.111 -16.797  1.00  0.00     0.221 C 
ENDROOT
BRANCH   1   2
ATOM      2  S   UNL     1       7.950  -0.464 -18.454  1.00  0.00    -0.127 SA
BRANCH   2   3
ATOM      3  C   UNL     1       6.570  -1.611 -18.768  1.00  0.00     0.098 C 
BRANCH   3   4
ATOM      4  C   UNL     1       6.327  -1.676 -20.244  1.00  0.00    -0.024 C 
ATOM      5  C   UNL     1       6.044  -2.801 -20.914  1.00  0.00     0.005 C 
ENDBRANCH   3   4
ENDBRANCH   2   3
ENDBRANCH   1   2
BRANCH   1   6
ATOM      6  C   UNL     1       8.449  -0.361 -15.719  1.00  0.00     0.330 C 
ATOM      7  O   UNL     1       9.081   0.403 -15.001  1.00  0.00    -0.250 OA
BRANCH   6   8
ATOM      8  O   UNL     1       8.663  -1.702 -15.703  1.00  0.00    -0.479 OA
ATOM      9  H   UNL     1       7.921  -2.162 -15.251  1.00  0.00     0.296 HD
ENDBRANCH   6   8
ENDBRANCH   1   6
BRANCH   1  10
ATOM     10  N   UNL     1       7.400   1.573 -16.817  1.00  0.00    -0.310 NA
ATOM     11  H   UNL     1       6.466   1.884 -16.558  1.00  0.00     0.120 HD
ATOM     12  H   UNL     1       7.549   1.889 -17.778  1.00  0.00     0.120 HD
ENDBRANCH   1  10
TORSDOF 6
ENDMDL
MODEL 8
REMARK VINA RESULT:      -4.4     14.064     14.973
REMARK SMILES C=CCS[C@H](N)C(=O)O
REMARK SMILES IDX 5 1 4 2 3 3 2 4 1 5 7 6 8 7 9 8 6 10
REMARK H PARENT 9 9 6 11 6 12
ROOT
ATOM      1  C   UNL     1       7.124  -1.439 -17.289  1.00  0.00     0.221 C 
ENDROOT
BRANCH   1   2
ATOM      2  S   UNL     1       6.727  -1.242 -19.059  1.00  0.00    -0.127 SA
BRANCH   2   3
ATOM      3  C   UNL     1       6.347  -2.981 -19.442  1.00  0.00     0.098 C 
BRANCH   3   4
ATOM      4  C   UNL     1       6.005  -3.089 -20.896  1.00  0.00    -0.024 C 
ATOM      5  C   UNL     1       5.639  -2.055 -21.665  1.00  0.00     0.005 C 
ENDBRANCH   3   4
ENDBRANCH   2   3
ENDBRANCH   1   2
BRANCH   1   6
ATOM      6  C   UNL     1       7.843  -0.187 -16.739  1.00  0.00     0.330 C 
ATOM      7  O   UNL     1       9.001  -0.189 -16.344  1.00  0.00    -0.250 OA
BRANCH   6   8
ATOM      8  O   UNL     1       7.046   0.907 -16.618  1.00  0.00    -0.479 OA
ATOM      9  H   UNL     1       7.559   1.667 -16.262  1.00  0.00     0.296 HD
ENDBRANCH   6   8
ENDBRANCH   1   6
BRANCH   1  10
ATOM     10  N   UNL     1       5.871  -1.645 -16.562  1.00  0.00    -0.310 NA
ATOM     11  H   UNL     1       5.647  -2.639 -16.550  1.00  0.00     0.120 HD
ATOM     12  H   UNL     1       5.117  -1.190 -17.080  1.00  0.00     0.120 HD
ENDBRANCH   1  10
TORSDOF 6
ENDMDL
MODEL 9
REMARK VINA RESULT:      -4.3     13.353     14.282
REMARK SMILES C=CCS[C@H](N)C(=O)O
REMARK SMILES IDX 5 1 4 2 3 3 2 4 1 5 7 6 8 7 9 8 6 10
REMARK H PARENT 9 9 6 11 6 12
ROOT
ATOM      1  C   UNL     1      -9.875   0.413 -31.625  1.00  0.00     0.221 C 
ENDROOT
BRANCH   1   2
ATOM      2  S   UNL     1      -8.675  -0.945 -31.839  1.00  0.00    -0.127 SA
BRANCH   2   3
ATOM      3  C   UNL     1      -9.648  -2.282 -31.076  1.00  0.00     0.098 C 
BRANCH   3   4
ATOM      4  C   UNL     1      -8.741  -3.442 -30.806  1.00  0.00    -0.024 C 
ATOM      5  C   UNL     1      -9.053  -4.477 -30.014  1.00  0.00     0.005 C 
ENDBRANCH   3   4
ENDBRANCH   2   3
ENDBRANCH   1   2
BRANCH   1   6
ATOM      6  C   UNL     1     -10.597   0.730 -32.954  1.00  0.00     0.330 C 
ATOM      7  O   UNL     1     -10.780  -0.095 -33.839  1.00  0.00    -0.250 OA
BRANCH   6   8
ATOM      8  O   UNL     1     -10.918   2.040 -33.117  1.00  0.00    -0.479 OA
ATOM      9  H   UNL     1     -11.360   2.179 -33.984  1.00  0.00     0.296 HD
ENDBRANCH   6   8
ENDBRANCH   1   6
BRANCH   1  10
ATOM     10  N   UNL     1     -10.856   0.000 -30.620  1.00  0.00    -0.310 NA
ATOM     11  H   UNL     1     -11.552   0.734 -30.507  1.00  0.00     0.120 HD
ATOM     12  H   UNL     1     -10.381  -0.082 -29.719  1.00  0.00     0.120 HD
ENDBRANCH   1  10
TORSDOF 6
ENDMDL
MODEL 10
REMARK VINA RESULT:      -4.2     14.055     14.934
REMARK SMILES C=CCS[C@H](N)C(=O)O
REMARK SMILES IDX 5 1 4 2 3 3 2 4 1 5 7 6 8 7 9 8 6 10
REMARK H PARENT 9 9 6 11 6 12
ROOT
ATOM      1  C   UNL     1      -9.875   0.329 -31.588  1.00  0.00     0.221 C 
ENDROOT
BRANCH   1   2
ATOM      2  S   UNL     1      -8.784  -1.111 -31.847  1.00  0.00    -0.127 SA
BRANCH   2   3
ATOM      3  C   UNL     1      -7.192  -0.310 -31.468  1.00  0.00     0.098 C 
BRANCH   3   4
ATOM      4  C   UNL     1      -7.176   1.048 -32.099  1.00  0.00    -0.024 C 
ATOM      5  C   UNL     1      -7.099   1.267 -33.418  1.00  0.00     0.005 C 
ENDBRANCH   3   4
ENDBRANCH   2   3
ENDBRANCH   1   2
BRANCH   1   6
ATOM      6  C   UNL     1     -10.641   0.685 -32.881  1.00  0.00     0.330 C 
ATOM      7  O   UNL     1     -10.906  -0.127 -33.757  1.00  0.00    -0.250 OA
BRANCH   6   8
ATOM      8  O   UNL     1     -10.903   2.010 -33.028  1.00  0.00    -0.479 OA
ATOM      9  H   UNL     1     -11.841   2.201 -32.803  1.00  0.00     0.296 HD
ENDBRANCH   6   8
ENDBRANCH   1   6
BRANCH   1  10
ATOM     10  N   UNL     1     -10.829  -0.008 -30.530  1.00  0.00    -0.310 NA
ATOM     11  H   UNL     1     -11.067  -0.996 -30.592  1.00  0.00     0.120 HD
ATOM     12  H   UNL     1     -11.696   0.505 -30.700  1.00  0.00     0.120 HD
ENDBRANCH   1  10
TORSDOF 6
ENDMDL
