MODEL 1
REMARK VINA RESULT:      -6.9      0.000      0.000
REMARK SMILES CC(C)=CCCC(C)=CC=O
REMARK SMILES IDX 5 1 4 2 2 3 1 4 3 5 6 6 7 7 9 8 8 9 10 10 11 11
REMARK H PARENT
ROOT
ATOM      1  C   UNL     1       6.468  -2.728 -21.070  1.00  0.00     0.032 C 
ENDROOT
BRANCH   1   2
ATOM      2  C   UNL     1       6.148  -2.533 -19.613  1.00  0.00    -0.028 C 
ATOM      3  C   UNL     1       6.721  -1.669 -18.753  1.00  0.00    -0.080 C 
ATOM      4  C   UNL     1       7.852  -0.736 -19.085  1.00  0.00     0.039 C 
ATOM      5  C   UNL     1       6.249  -1.584 -17.324  1.00  0.00     0.039 C 
ENDBRANCH   1   2
BRANCH   1   6
ATOM      6  C   UNL     1       5.725  -1.711 -21.943  1.00  0.00     0.035 C 
BRANCH   6   7
ATOM      7  C   UNL     1       4.752  -2.376 -22.895  1.00  0.00    -0.070 C 
ATOM      8  C   UNL     1       4.523  -1.992 -24.166  1.00  0.00     0.042 C 
ATOM      9  C   UNL     1       4.028  -3.573 -22.330  1.00  0.00     0.039 C 
BRANCH   8  10
ATOM     10  C   UNL     1       5.140  -0.826 -24.835  1.00  0.00     0.252 C 
ATOM     11  O   UNL     1       4.501  -0.137 -25.621  1.00  0.00    -0.299 OA
ENDBRANCH   8  10
ENDBRANCH   6   7
ENDBRANCH   1   6
TORSDOF 4
ENDMDL
MODEL 2
REMARK VINA RESULT:      -6.8      2.963      5.839
REMARK SMILES CC(C)=CCCC(C)=CC=O
REMARK SMILES IDX 5 1 4 2 2 3 1 4 3 5 6 6 7 7 9 8 8 9 10 10 11 11
REMARK H PARENT
ROOT
ATOM      1  C   UNL     1       6.140  -2.279 -20.390  1.00  0.00     0.032 C 
ENDROOT
BRANCH   1   2
ATOM      2  C   UNL     1       5.926  -1.778 -21.792  1.00  0.00    -0.028 C 
ATOM      3  C   UNL     1       5.039  -2.228 -22.700  1.00  0.00    -0.080 C 
ATOM      4  C   UNL     1       4.092  -3.377 -22.493  1.00  0.00     0.039 C 
ATOM      5  C   UNL     1       4.938  -1.581 -24.058  1.00  0.00     0.039 C 
ENDBRANCH   1   2
BRANCH   1   6
ATOM      6  C   UNL     1       6.794  -1.209 -19.510  1.00  0.00     0.035 C 
BRANCH   6   7
ATOM      7  C   UNL     1       6.564  -1.460 -18.034  1.00  0.00    -0.070 C 
ATOM      8  C   UNL     1       6.899  -0.615 -17.040  1.00  0.00     0.042 C 
ATOM      9  C   UNL     1       5.880  -2.765 -17.711  1.00  0.00     0.039 C 
BRANCH   8  10
ATOM     10  C   UNL     1       7.596   0.679 -17.212  1.00  0.00     0.252 C 
ATOM     11  O   UNL     1       7.039   1.737 -16.947  1.00  0.00    -0.299 OA
ENDBRANCH   8  10
ENDBRANCH   6   7
ENDBRANCH   1   6
TORSDOF 4
ENDMDL
MODEL 3
REMARK VINA RESULT:      -6.5      1.325      2.395
REMARK SMILES CC(C)=CCCC(C)=CC=O
REMARK SMILES IDX 5 1 4 2 2 3 1 4 3 5 6 6 7 7 9 8 8 9 10 10 11 11
REMARK H PARENT
ROOT
ATOM      1  C   UNL     1       4.970  -2.225 -22.602  1.00  0.00     0.032 C 
ENDROOT
BRANCH   1   2
ATOM      2  C   UNL     1       5.802  -1.554 -21.544  1.00  0.00    -0.028 C 
ATOM      3  C   UNL     1       6.287  -2.098 -20.412  1.00  0.00    -0.080 C 
ATOM      4  C   UNL     1       6.047  -3.510 -19.955  1.00  0.00     0.039 C 
ATOM      5  C   UNL     1       7.138  -1.282 -19.473  1.00  0.00     0.039 C 
ENDBRANCH   1   2
BRANCH   1   6
ATOM      6  C   UNL     1       5.319  -1.702 -23.999  1.00  0.00     0.035 C 
BRANCH   6   7
ATOM      7  C   UNL     1       4.114  -1.127 -24.714  1.00  0.00    -0.070 C 
ATOM      8  C   UNL     1       4.160  -0.349 -25.813  1.00  0.00     0.042 C 
ATOM      9  C   UNL     1       2.781  -1.506 -24.118  1.00  0.00     0.039 C 
BRANCH   8  10
ATOM     10  C   UNL     1       5.393   0.120 -26.482  1.00  0.00     0.252 C 
ATOM     11  O   UNL     1       5.969  -0.578 -27.308  1.00  0.00    -0.299 OA
ENDBRANCH   8  10
ENDBRANCH   6   7
ENDBRANCH   1   6
TORSDOF 4
ENDMDL
MODEL 4
REMARK VINA RESULT:      -5.9      2.075      3.485
REMARK SMILES CC(C)=CCCC(C)=CC=O
REMARK SMILES IDX 5 1 4 2 2 3 1 4 3 5 6 6 7 7 9 8 8 9 10 10 11 11
REMARK H PARENT
ROOT
ATOM      1  C   UNL     1       6.778  -0.934 -18.079  1.00  0.00     0.032 C 
ENDROOT
BRANCH   1   2
ATOM      2  C   UNL     1       7.877   0.011 -17.676  1.00  0.00    -0.028 C 
ATOM      3  C   UNL     1       8.740  -0.121 -16.650  1.00  0.00    -0.080 C 
ATOM      4  C   UNL     1       8.742  -1.249 -15.657  1.00  0.00     0.039 C 
ATOM      5  C   UNL     1       9.810   0.915 -16.411  1.00  0.00     0.039 C 
ENDBRANCH   1   2
BRANCH   1   6
ATOM      6  C   UNL     1       6.838  -1.252 -19.576  1.00  0.00     0.035 C 
BRANCH   6   7
ATOM      7  C   UNL     1       6.164  -2.566 -19.911  1.00  0.00    -0.070 C 
ATOM      8  C   UNL     1       5.624  -2.881 -21.105  1.00  0.00     0.042 C 
ATOM      9  C   UNL     1       6.144  -3.574 -18.789  1.00  0.00     0.039 C 
BRANCH   8  10
ATOM     10  C   UNL     1       5.550  -1.982 -22.277  1.00  0.00     0.252 C 
ATOM     11  O   UNL     1       4.768  -2.202 -23.195  1.00  0.00    -0.299 OA
ENDBRANCH   8  10
ENDBRANCH   6   7
ENDBRANCH   1   6
TORSDOF 4
ENDMDL
MODEL 5
REMARK VINA RESULT:      -5.7     11.156     13.167
REMARK SMILES CC(C)=CCCC(C)=CC=O
REMARK SMILES IDX 5 1 4 2 2 3 1 4 3 5 6 6 7 7 9 8 8 9 10 10 11 11
REMARK H PARENT
ROOT
ATOM      1  C   UNL     1      -1.169 -10.617 -27.401  1.00  0.00     0.032 C 
ENDROOT
BRANCH   1   2
ATOM      2  C   UNL     1      -0.260 -10.364 -26.229  1.00  0.00    -0.028 C 
ATOM      3  C   UNL     1       0.520 -11.253 -25.586  1.00  0.00    -0.080 C 
ATOM      4  C   UNL     1       0.603 -12.721 -25.900  1.00  0.00     0.039 C 
ATOM      5  C   UNL     1       1.400 -10.815 -24.443  1.00  0.00     0.039 C 
ENDBRANCH   1   2
BRANCH   1   6
ATOM      6  C   UNL     1      -2.616 -10.835 -26.946  1.00  0.00     0.035 C 
BRANCH   6   7
ATOM      7  C   UNL     1      -3.543  -9.744 -27.442  1.00  0.00    -0.070 C 
ATOM      8  C   UNL     1      -4.866  -9.679 -27.200  1.00  0.00     0.042 C 
ATOM      9  C   UNL     1      -2.873  -8.658 -28.245  1.00  0.00     0.039 C 
BRANCH   8  10
ATOM     10  C   UNL     1      -5.653 -10.686 -26.454  1.00  0.00     0.252 C 
ATOM     11  O   UNL     1      -6.079 -10.450 -25.330  1.00  0.00    -0.299 OA
ENDBRANCH   8  10
ENDBRANCH   6   7
ENDBRANCH   1   6
TORSDOF 4
ENDMDL
MODEL 6
REMARK VINA RESULT:      -5.7     11.228     13.326
REMARK SMILES CC(C)=CCCC(C)=CC=O
REMARK SMILES IDX 5 1 4 2 2 3 1 4 3 5 6 6 7 7 9 8 8 9 10 10 11 11
REMARK H PARENT
ROOT
ATOM      1  C   UNL     1      -2.044 -10.250 -28.170  1.00  0.00     0.032 C 
ENDROOT
BRANCH   1   2
ATOM      2  C   UNL     1      -3.441 -10.451 -27.651  1.00  0.00    -0.028 C 
ATOM      3  C   UNL     1      -4.244  -9.535 -27.076  1.00  0.00    -0.080 C 
ATOM      4  C   UNL     1      -3.871  -8.106 -26.796  1.00  0.00     0.039 C 
ATOM      5  C   UNL     1      -5.640  -9.905 -26.642  1.00  0.00     0.039 C 
ENDBRANCH   1   2
BRANCH   1   6
ATOM      6  C   UNL     1      -1.041 -11.136 -27.424  1.00  0.00     0.035 C 
BRANCH   6   7
ATOM      7  C   UNL     1      -0.091 -10.329 -26.564  1.00  0.00    -0.070 C 
ATOM      8  C   UNL     1       0.690 -10.830 -25.588  1.00  0.00     0.042 C 
ATOM      9  C   UNL     1      -0.038  -8.856 -26.886  1.00  0.00     0.039 C 
BRANCH   8  10
ATOM     10  C   UNL     1       0.718 -12.243 -25.151  1.00  0.00     0.252 C 
ATOM     11  O   UNL     1       1.148 -13.124 -25.886  1.00  0.00    -0.299 OA
ENDBRANCH   8  10
ENDBRANCH   6   7
ENDBRANCH   1   6
TORSDOF 4
ENDMDL
MODEL 7
REMARK VINA RESULT:      -5.4      5.172      8.048
REMARK SMILES CC(C)=CCCC(C)=CC=O
REMARK SMILES IDX 5 1 4 2 2 3 1 4 3 5 6 6 7 7 9 8 8 9 10 10 11 11
REMARK H PARENT
ROOT
ATOM      1  C   UNL     1       7.781   0.475 -16.803  1.00  0.00     0.032 C 
ENDROOT
BRANCH   1   2
ATOM      2  C   UNL     1       7.485  -0.135 -18.146  1.00  0.00    -0.028 C 
ATOM      3  C   UNL     1       6.738  -1.224 -18.408  1.00  0.00    -0.080 C 
ATOM      4  C   UNL     1       6.071  -2.088 -17.375  1.00  0.00     0.039 C 
ATOM      5  C   UNL     1       6.518  -1.679 -19.829  1.00  0.00     0.039 C 
ENDBRANCH   1   2
BRANCH   1   6
ATOM      6  C   UNL     1       9.268   0.816 -16.663  1.00  0.00     0.035 C 
BRANCH   6   7
ATOM      7  C   UNL     1      10.011  -0.194 -15.814  1.00  0.00    -0.070 C 
ATOM      8  C   UNL     1      11.291  -0.081 -15.412  1.00  0.00     0.042 C 
ATOM      9  C   UNL     1       9.196  -1.392 -15.394  1.00  0.00     0.039 C 
BRANCH   8  10
ATOM     10  C   UNL     1      12.209   1.022 -15.771  1.00  0.00     0.252 C 
ATOM     11  O   UNL     1      12.854   1.613 -14.914  1.00  0.00    -0.299 OA
ENDBRANCH   8  10
ENDBRANCH   6   7
ENDBRANCH   1   6
TORSDOF 4
ENDMDL
MODEL 8
REMARK VINA RESULT:      -5.2     11.464     13.125
REMARK SMILES CC(C)=CCCC(C)=CC=O
REMARK SMILES IDX 5 1 4 2 2 3 1 4 3 5 6 6 7 7 9 8 8 9 10 10 11 11
REMARK H PARENT
ROOT
ATOM      1  C   UNL     1      -4.577  -2.206 -27.702  1.00  0.00     0.032 C 
ENDROOT
BRANCH   1   2
ATOM      2  C   UNL     1      -3.555  -1.535 -28.578  1.00  0.00    -0.028 C 
ATOM      3  C   UNL     1      -2.980  -0.331 -28.397  1.00  0.00    -0.080 C 
ATOM      4  C   UNL     1      -3.289   0.619 -27.273  1.00  0.00     0.039 C 
ATOM      5  C   UNL     1      -1.941   0.176 -29.365  1.00  0.00     0.039 C 
ENDBRANCH   1   2
BRANCH   1   6
ATOM      6  C   UNL     1      -5.951  -2.242 -28.378  1.00  0.00     0.035 C 
BRANCH   6   7
ATOM      7  C   UNL     1      -6.601  -0.875 -28.430  1.00  0.00    -0.070 C 
ATOM      8  C   UNL     1      -6.824  -0.163 -29.551  1.00  0.00     0.042 C 
ATOM      9  C   UNL     1      -7.036  -0.327 -27.094  1.00  0.00     0.039 C 
BRANCH   8  10
ATOM     10  C   UNL     1      -6.426  -0.566 -30.918  1.00  0.00     0.252 C 
ATOM     11  O   UNL     1      -5.299  -0.338 -31.341  1.00  0.00    -0.299 OA
ENDBRANCH   8  10
ENDBRANCH   6   7
ENDBRANCH   1   6
TORSDOF 4
ENDMDL
MODEL 9
REMARK VINA RESULT:      -5.2     11.326     12.907
REMARK SMILES CC(C)=CCCC(C)=CC=O
REMARK SMILES IDX 5 1 4 2 2 3 1 4 3 5 6 6 7 7 9 8 8 9 10 10 11 11
REMARK H PARENT
ROOT
ATOM      1  C   UNL     1      -2.921   1.188 -27.657  1.00  0.00     0.032 C 
ENDROOT
BRANCH   1   2
ATOM      2  C   UNL     1      -3.173   2.374 -28.546  1.00  0.00    -0.028 C 
ATOM      3  C   UNL     1      -4.353   2.798 -29.039  1.00  0.00    -0.080 C 
ATOM      4  C   UNL     1      -5.678   2.121 -28.820  1.00  0.00     0.039 C 
ATOM      5  C   UNL     1      -4.426   4.037 -29.894  1.00  0.00     0.039 C 
ENDBRANCH   1   2
BRANCH   1   6
ATOM      6  C   UNL     1      -2.368   0.002 -28.454  1.00  0.00     0.035 C 
BRANCH   6   7
ATOM      7  C   UNL     1      -3.468  -0.891 -28.990  1.00  0.00    -0.070 C 
ATOM      8  C   UNL     1      -3.882  -0.931 -30.271  1.00  0.00     0.042 C 
ATOM      9  C   UNL     1      -4.098  -1.805 -27.968  1.00  0.00     0.039 C 
BRANCH   8  10
ATOM     10  C   UNL     1      -3.372  -0.075 -31.365  1.00  0.00     0.252 C 
ATOM     11  O   UNL     1      -4.082   0.779 -31.882  1.00  0.00    -0.299 OA
ENDBRANCH   8  10
ENDBRANCH   6   7
ENDBRANCH   1   6
TORSDOF 4
ENDMDL
MODEL 10
REMARK VINA RESULT:      -5.2     11.182     13.671
REMARK SMILES CC(C)=CCCC(C)=CC=O
REMARK SMILES IDX 5 1 4 2 2 3 1 4 3 5 6 6 7 7 9 8 8 9 10 10 11 11
REMARK H PARENT
ROOT
ATOM      1  C   UNL     1      -3.675  -1.387 -30.331  1.00  0.00     0.032 C 
ENDROOT
BRANCH   1   2
ATOM      2  C   UNL     1      -5.070  -0.860 -30.525  1.00  0.00    -0.028 C 
ATOM      3  C   UNL     1      -5.446   0.251 -31.189  1.00  0.00    -0.080 C 
ATOM      4  C   UNL     1      -4.510   1.227 -31.846  1.00  0.00     0.039 C 
ATOM      5  C   UNL     1      -6.904   0.612 -31.314  1.00  0.00     0.039 C 
ENDBRANCH   1   2
BRANCH   1   6
ATOM      6  C   UNL     1      -3.408  -1.725 -28.861  1.00  0.00     0.035 C 
BRANCH   6   7
ATOM      7  C   UNL     1      -3.370  -0.490 -27.985  1.00  0.00    -0.070 C 
ATOM      8  C   UNL     1      -4.229  -0.221 -26.982  1.00  0.00     0.042 C 
ATOM      9  C   UNL     1      -2.247   0.470 -28.288  1.00  0.00     0.039 C 
BRANCH   8  10
ATOM     10  C   UNL     1      -5.387  -1.057 -26.597  1.00  0.00     0.252 C 
ATOM     11  O   UNL     1      -5.262  -1.985 -25.806  1.00  0.00    -0.299 OA
ENDBRANCH   8  10
ENDBRANCH   6   7
ENDBRANCH   1   6
TORSDOF 4
ENDMDL
