MODEL 1
REMARK VINA RESULT:      -6.7      0.000      0.000
REMARK SMILES CCC=CC(=O)O
REMARK SMILES IDX 3 1 4 2 2 3 1 4 5 5 6 6 7 7
REMARK H PARENT 7 8
ROOT
ATOM      1  C   UNL     1       4.068  -2.058 -23.588  1.00  0.00    -0.020 C 
ATOM      2  C   UNL     1       4.800  -1.403 -24.504  1.00  0.00     0.089 C 
ENDROOT
BRANCH   1   3
ATOM      3  C   UNL     1       4.653  -2.882 -22.479  1.00  0.00     0.024 C 
ATOM      4  C   UNL     1       5.661  -2.083 -21.667  1.00  0.00     0.008 C 
ENDBRANCH   1   3
BRANCH   2   5
ATOM      5  C   UNL     1       4.128  -0.611 -25.558  1.00  0.00     0.327 C 
ATOM      6  O   UNL     1       4.605  -0.365 -26.651  1.00  0.00    -0.247 OA
BRANCH   5   7
ATOM      7  O   UNL     1       2.911  -0.184 -25.166  1.00  0.00    -0.478 OA
ATOM      8  H   UNL     1       2.364  -0.842 -24.703  1.00  0.00     0.297 HD
ENDBRANCH   5   7
ENDBRANCH   2   5
TORSDOF 3
ENDMDL
MODEL 2
REMARK VINA RESULT:      -6.4      2.427      4.122
REMARK SMILES CCC=CC(=O)O
REMARK SMILES IDX 3 1 4 2 2 3 1 4 5 5 6 6 7 7
REMARK H PARENT 7 8
ROOT
ATOM      1  C   UNL     1       5.703   0.048 -26.170  1.00  0.00    -0.020 C 
ATOM      2  C   UNL     1       4.588  -0.680 -26.345  1.00  0.00     0.089 C 
ENDROOT
BRANCH   1   3
ATOM      3  C   UNL     1       6.635   0.435 -27.280  1.00  0.00     0.024 C 
ATOM      4  C   UNL     1       5.929   0.423 -28.627  1.00  0.00     0.008 C 
ENDBRANCH   1   3
BRANCH   2   5
ATOM      5  C   UNL     1       3.729  -1.005 -25.185  1.00  0.00     0.327 C 
ATOM      6  O   UNL     1       3.911  -1.941 -24.427  1.00  0.00    -0.247 OA
BRANCH   5   7
ATOM      7  O   UNL     1       2.705  -0.137 -25.057  1.00  0.00    -0.478 OA
ATOM      8  H   UNL     1       2.955   0.774 -24.824  1.00  0.00     0.297 HD
ENDBRANCH   5   7
ENDBRANCH   2   5
TORSDOF 3
ENDMDL
MODEL 3
REMARK VINA RESULT:      -5.9      4.028      5.119
REMARK SMILES CCC=CC(=O)O
REMARK SMILES IDX 3 1 4 2 2 3 1 4 5 5 6 6 7 7
REMARK H PARENT 7 8
ROOT
ATOM      1  C   UNL     1       5.261  -2.070 -22.064  1.00  0.00    -0.020 C 
ATOM      2  C   UNL     1       5.689  -2.997 -21.192  1.00  0.00     0.089 C 
ENDROOT
BRANCH   1   3
ATOM      3  C   UNL     1       4.487  -2.383 -23.311  1.00  0.00     0.024 C 
ATOM      4  C   UNL     1       4.858  -1.439 -24.446  1.00  0.00     0.008 C 
ENDBRANCH   1   3
BRANCH   2   5
ATOM      5  C   UNL     1       6.441  -2.586 -19.986  1.00  0.00     0.327 C 
ATOM      6  O   UNL     1       6.871  -1.464 -19.785  1.00  0.00    -0.247 OA
BRANCH   5   7
ATOM      7  O   UNL     1       6.600  -3.607 -19.121  1.00  0.00    -0.478 OA
ATOM      8  H   UNL     1       7.195  -3.432 -18.370  1.00  0.00     0.297 HD
ENDBRANCH   5   7
ENDBRANCH   2   5
TORSDOF 3
ENDMDL
MODEL 4
REMARK VINA RESULT:      -5.9      1.304      2.131
REMARK SMILES CCC=CC(=O)O
REMARK SMILES IDX 3 1 4 2 2 3 1 4 5 5 6 6 7 7
REMARK H PARENT 7 8
ROOT
ATOM      1  C   UNL     1       5.399  -2.025 -22.200  1.00  0.00    -0.020 C 
ATOM      2  C   UNL     1       4.470  -2.473 -23.060  1.00  0.00     0.089 C 
ENDROOT
BRANCH   1   3
ATOM      3  C   UNL     1       5.903  -2.808 -21.024  1.00  0.00     0.024 C 
ATOM      4  C   UNL     1       6.517  -1.896 -19.972  1.00  0.00     0.008 C 
ENDBRANCH   1   3
BRANCH   2   5
ATOM      5  C   UNL     1       4.043  -1.626 -24.195  1.00  0.00     0.327 C 
ATOM      6  O   UNL     1       2.886  -1.362 -24.467  1.00  0.00    -0.247 OA
BRANCH   5   7
ATOM      7  O   UNL     1       5.094  -1.171 -24.906  1.00  0.00    -0.478 OA
ATOM      8  H   UNL     1       5.870  -0.902 -24.383  1.00  0.00     0.297 HD
ENDBRANCH   5   7
ENDBRANCH   2   5
TORSDOF 3
ENDMDL
MODEL 5
REMARK VINA RESULT:      -5.5      2.544      3.858
REMARK SMILES CCC=CC(=O)O
REMARK SMILES IDX 3 1 4 2 2 3 1 4 5 5 6 6 7 7
REMARK H PARENT 7 8
ROOT
ATOM      1  C   UNL     1       4.167  -1.286 -24.926  1.00  0.00    -0.020 C 
ATOM      2  C   UNL     1       5.150  -1.571 -24.057  1.00  0.00     0.089 C 
ENDROOT
BRANCH   1   3
ATOM      3  C   UNL     1       4.378  -0.575 -26.230  1.00  0.00     0.024 C 
ATOM      4  C   UNL     1       5.764   0.048 -26.304  1.00  0.00     0.008 C 
ENDBRANCH   1   3
BRANCH   2   5
ATOM      5  C   UNL     1       4.840  -2.282 -22.797  1.00  0.00     0.327 C 
ATOM      6  O   UNL     1       4.071  -3.221 -22.702  1.00  0.00    -0.247 OA
BRANCH   5   7
ATOM      7  O   UNL     1       5.513  -1.766 -21.750  1.00  0.00    -0.478 OA
ATOM      8  H   UNL     1       6.475  -1.912 -21.757  1.00  0.00     0.297 HD
ENDBRANCH   5   7
ENDBRANCH   2   5
TORSDOF 3
ENDMDL
MODEL 6
REMARK VINA RESULT:      -5.3      2.425      3.252
REMARK SMILES CCC=CC(=O)O
REMARK SMILES IDX 3 1 4 2 2 3 1 4 5 5 6 6 7 7
REMARK H PARENT 7 8
ROOT
ATOM      1  C   UNL     1       5.167  -0.359 -25.684  1.00  0.00    -0.020 C 
ATOM      2  C   UNL     1       5.260  -0.255 -27.020  1.00  0.00     0.089 C 
ENDROOT
BRANCH   1   3
ATOM      3  C   UNL     1       4.248  -1.311 -24.978  1.00  0.00     0.024 C 
ATOM      4  C   UNL     1       4.843  -1.781 -23.659  1.00  0.00     0.008 C 
ENDBRANCH   1   3
BRANCH   2   5
ATOM      5  C   UNL     1       6.204   0.712 -27.622  1.00  0.00     0.327 C 
ATOM      6  O   UNL     1       7.093   1.283 -27.016  1.00  0.00    -0.247 OA
BRANCH   5   7
ATOM      7  O   UNL     1       5.967   0.894 -28.936  1.00  0.00    -0.478 OA
ATOM      8  H   UNL     1       5.786   1.811 -29.207  1.00  0.00     0.297 HD
ENDBRANCH   5   7
ENDBRANCH   2   5
TORSDOF 3
ENDMDL
MODEL 7
REMARK VINA RESULT:      -5.3      4.628      5.741
REMARK SMILES CCC=CC(=O)O
REMARK SMILES IDX 3 1 4 2 2 3 1 4 5 5 6 6 7 7
REMARK H PARENT 7 8
ROOT
ATOM      1  C   UNL     1       5.592  -2.377 -21.222  1.00  0.00    -0.020 C 
ATOM      2  C   UNL     1       6.334  -1.732 -20.307  1.00  0.00     0.089 C 
ENDROOT
BRANCH   1   3
ATOM      3  C   UNL     1       5.435  -1.928 -22.645  1.00  0.00     0.024 C 
ATOM      4  C   UNL     1       4.161  -2.483 -23.265  1.00  0.00     0.008 C 
ENDBRANCH   1   3
BRANCH   2   5
ATOM      5  C   UNL     1       6.431  -2.260 -18.929  1.00  0.00     0.327 C 
ATOM      6  O   UNL     1       6.572  -1.576 -17.932  1.00  0.00    -0.247 OA
BRANCH   5   7
ATOM      7  O   UNL     1       6.345  -3.605 -18.898  1.00  0.00    -0.478 OA
ATOM      8  H   UNL     1       5.523  -3.981 -19.259  1.00  0.00     0.297 HD
ENDBRANCH   5   7
ENDBRANCH   2   5
TORSDOF 3
ENDMDL
MODEL 8
REMARK VINA RESULT:      -5.1      4.568      5.803
REMARK SMILES CCC=CC(=O)O
REMARK SMILES IDX 3 1 4 2 2 3 1 4 5 5 6 6 7 7
REMARK H PARENT 7 8
ROOT
ATOM      1  C   UNL     1       5.845  -1.896 -21.067  1.00  0.00    -0.020 C 
ATOM      2  C   UNL     1       6.357  -2.416 -19.939  1.00  0.00     0.089 C 
ENDROOT
BRANCH   1   3
ATOM      3  C   UNL     1       5.164  -2.706 -22.131  1.00  0.00     0.024 C 
ATOM      4  C   UNL     1       4.963  -1.894 -23.402  1.00  0.00     0.008 C 
ENDBRANCH   1   3
BRANCH   2   5
ATOM      5  C   UNL     1       7.005  -1.531 -18.946  1.00  0.00     0.327 C 
ATOM      6  O   UNL     1       6.410  -0.810 -18.166  1.00  0.00    -0.247 OA
BRANCH   5   7
ATOM      7  O   UNL     1       8.350  -1.613 -19.002  1.00  0.00    -0.478 OA
ATOM      8  H   UNL     1       8.779  -2.003 -18.220  1.00  0.00     0.297 HD
ENDBRANCH   5   7
ENDBRANCH   2   5
TORSDOF 3
ENDMDL
MODEL 9
REMARK VINA RESULT:      -5.1     12.751     13.420
REMARK SMILES CCC=CC(=O)O
REMARK SMILES IDX 3 1 4 2 2 3 1 4 5 5 6 6 7 7
REMARK H PARENT 7 8
ROOT
ATOM      1  C   UNL     1      -4.025 -10.089 -27.482  1.00  0.00    -0.020 C 
ATOM      2  C   UNL     1      -5.177  -9.871 -26.826  1.00  0.00     0.089 C 
ENDROOT
BRANCH   1   3
ATOM      3  C   UNL     1      -3.184  -9.003 -28.086  1.00  0.00     0.024 C 
ATOM      4  C   UNL     1      -1.770  -9.020 -27.525  1.00  0.00     0.008 C 
ENDBRANCH   1   3
BRANCH   2   5
ATOM      5  C   UNL     1      -5.932 -11.011 -26.260  1.00  0.00     0.327 C 
ATOM      6  O   UNL     1      -5.982 -11.290 -25.076  1.00  0.00    -0.247 OA
BRANCH   5   7
ATOM      7  O   UNL     1      -6.568 -11.717 -27.216  1.00  0.00    -0.478 OA
ATOM      8  H   UNL     1      -6.434 -12.680 -27.184  1.00  0.00     0.297 HD
ENDBRANCH   5   7
ENDBRANCH   2   5
TORSDOF 3
ENDMDL
MODEL 10
REMARK VINA RESULT:      -5.0      4.541      5.646
REMARK SMILES CCC=CC(=O)O
REMARK SMILES IDX 3 1 4 2 2 3 1 4 5 5 6 6 7 7
REMARK H PARENT 7 8
ROOT
ATOM      1  C   UNL     1       5.754  -1.824 -20.959  1.00  0.00    -0.020 C 
ATOM      2  C   UNL     1       6.647  -2.212 -20.033  1.00  0.00     0.089 C 
ENDROOT
BRANCH   1   3
ATOM      3  C   UNL     1       5.223  -2.717 -22.040  1.00  0.00     0.024 C 
ATOM      4  C   UNL     1       4.937  -1.937 -23.314  1.00  0.00     0.008 C 
ENDBRANCH   1   3
BRANCH   2   5
ATOM      5  C   UNL     1       7.105  -1.256 -19.002  1.00  0.00     0.327 C 
ATOM      6  O   UNL     1       8.238  -0.816 -18.918  1.00  0.00    -0.247 OA
BRANCH   5   7
ATOM      7  O   UNL     1       6.115  -0.921 -18.151  1.00  0.00    -0.478 OA
ATOM      8  H   UNL     1       5.217  -0.933 -18.527  1.00  0.00     0.297 HD
ENDBRANCH   5   7
ENDBRANCH   2   5
TORSDOF 3
ENDMDL
