MODEL 1
REMARK VINA RESULT:      -9.5      0.000      0.000
REMARK SMILES CCC(C)(C)C(=O)O[C@H]1C[C@@H](C)C=C2C=C[C@H](C)[C@H](CC[C@@H]3C[C@@H](O)CC(=O)O3)[C@H]21
REMARK SMILES IDX 9 1 10 2 11 3 13 4 14 5 30 6 19 7 17 8 16 9 15 10 18 11
REMARK SMILES IDX 12 12 8 13 6 14 7 15 3 16 4 17 5 18 2 19 1 20 20 21 21 22
REMARK SMILES IDX 22 23 23 24 29 25 24 26 27 27 26 28 28 29 25 30
REMARK H PARENT 25 31
ROOT
ATOM      1  C   UNL     1      -7.533   0.632 -29.345  1.00  0.00     0.185 C 
ATOM      2  C   UNL     1      -7.117   2.025 -28.858  1.00  0.00     0.053 C 
ATOM      3  C   UNL     1      -6.109   2.725 -29.781  1.00  0.00     0.012 C 
ATOM      4  C   UNL     1      -6.372   2.458 -31.238  1.00  0.00    -0.020 C 
ATOM      5  C   UNL     1      -7.262   1.563 -31.702  1.00  0.00    -0.045 C 
ATOM      6  C   UNL     1      -8.118   0.692 -30.782  1.00  0.00     0.063 C 
ATOM      7  C   UNL     1      -8.358  -0.716 -31.420  1.00  0.00     0.007 C 
ATOM      8  C   UNL     1      -8.970  -0.571 -32.847  1.00  0.00     0.012 C 
ATOM      9  C   UNL     1      -8.220   0.452 -33.663  1.00  0.00    -0.023 C 
ATOM     10  C   UNL     1      -7.438   1.400 -33.132  1.00  0.00    -0.000 C 
ATOM     11  C   UNL     1     -10.461  -0.214 -32.868  1.00  0.00     0.012 C 
ATOM     12  C   UNL     1      -4.660   2.371 -29.435  1.00  0.00     0.012 C 
ENDROOT
BRANCH   1  13
ATOM     13  O   UNL     1      -6.421  -0.286 -29.322  1.00  0.00    -0.461 OA
BRANCH  13  14
ATOM     14  C   UNL     1      -6.246  -1.014 -28.190  1.00  0.00     0.311 C 
ATOM     15  O   UNL     1      -7.161  -1.454 -27.505  1.00  0.00    -0.252 OA
BRANCH  14  16
ATOM     16  C   UNL     1      -4.761  -1.253 -27.872  1.00  0.00     0.062 C 
ATOM     17  C   UNL     1      -4.670  -2.611 -27.159  1.00  0.00     0.023 C 
ATOM     18  C   UNL     1      -4.176  -0.170 -26.948  1.00  0.00     0.023 C 
BRANCH  16  19
ATOM     19  C   UNL     1      -4.018  -1.267 -29.234  1.00  0.00     0.015 C 
ATOM     20  C   UNL     1      -2.637  -0.623 -29.242  1.00  0.00     0.005 C 
ENDBRANCH  16  19
ENDBRANCH  14  16
ENDBRANCH  13  14
ENDBRANCH   1  13
BRANCH   7  21
ATOM     21  C   UNL     1      -9.171  -1.660 -30.501  1.00  0.00     0.009 C 
BRANCH  21  22
ATOM     22  C   UNL     1      -8.938  -3.151 -30.792  1.00  0.00     0.046 C 
BRANCH  22  23
ATOM     23  C   UNL     1      -9.208  -4.024 -29.557  1.00  0.00     0.179 C 
ATOM     24  C   UNL     1     -10.324  -5.020 -29.836  1.00  0.00     0.077 C 
ATOM     25  O   UNL     1      -9.558  -3.152 -28.466  1.00  0.00    -0.462 OA
ATOM     26  C   UNL     1     -10.603  -5.808 -28.570  1.00  0.00     0.129 C 
ATOM     27  C   UNL     1     -10.072  -3.651 -27.319  1.00  0.00     0.308 C 
ATOM     28  C   UNL     1     -10.928  -4.887 -27.414  1.00  0.00     0.154 C 
ATOM     29  O   UNL     1      -9.982  -3.025 -26.266  1.00  0.00    -0.252 OA
BRANCH  26  30
ATOM     30  O   UNL     1      -9.467  -6.615 -28.265  1.00  0.00    -0.392 OA
ATOM     31  H   UNL     1      -9.783  -7.453 -27.882  1.00  0.00     0.210 HD
ENDBRANCH  26  30
ENDBRANCH  22  23
ENDBRANCH  21  22
ENDBRANCH   7  21
TORSDOF 8
ENDMDL
MODEL 2
REMARK VINA RESULT:      -9.3      0.945      1.589
REMARK SMILES CCC(C)(C)C(=O)O[C@H]1C[C@@H](C)C=C2C=C[C@H](C)[C@H](CC[C@@H]3C[C@@H](O)CC(=O)O3)[C@H]21
REMARK SMILES IDX 9 1 10 2 11 3 13 4 14 5 30 6 19 7 17 8 16 9 15 10 18 11
REMARK SMILES IDX 12 12 8 13 6 14 7 15 3 16 4 17 5 18 2 19 1 20 20 21 21 22
REMARK SMILES IDX 22 23 23 24 29 25 24 26 27 27 26 28 28 29 25 30
REMARK H PARENT 25 31
ROOT
ATOM      1  C   UNL     1      -7.356   1.014 -29.422  1.00  0.00     0.185 C 
ATOM      2  C   UNL     1      -6.893   2.392 -28.935  1.00  0.00     0.053 C 
ATOM      3  C   UNL     1      -5.797   3.020 -29.808  1.00  0.00     0.012 C 
ATOM      4  C   UNL     1      -5.990   2.738 -31.274  1.00  0.00    -0.020 C 
ATOM      5  C   UNL     1      -6.898   1.883 -31.775  1.00  0.00    -0.045 C 
ATOM      6  C   UNL     1      -7.852   1.077 -30.893  1.00  0.00     0.063 C 
ATOM      7  C   UNL     1      -8.131  -0.329 -31.520  1.00  0.00     0.007 C 
ATOM      8  C   UNL     1      -8.651  -0.179 -32.983  1.00  0.00     0.012 C 
ATOM      9  C   UNL     1      -7.800   0.786 -33.770  1.00  0.00    -0.023 C 
ATOM     10  C   UNL     1      -7.000   1.701 -33.210  1.00  0.00    -0.000 C 
ATOM     11  C   UNL     1     -10.116   0.256 -33.098  1.00  0.00     0.012 C 
ATOM     12  C   UNL     1      -4.392   2.595 -29.372  1.00  0.00     0.012 C 
ENDROOT
BRANCH   1  13
ATOM     13  O   UNL     1      -6.298   0.039 -29.319  1.00  0.00    -0.461 OA
BRANCH  13  14
ATOM     14  C   UNL     1      -6.237  -0.685 -28.172  1.00  0.00     0.311 C 
ATOM     15  O   UNL     1      -7.210  -0.975 -27.487  1.00  0.00    -0.252 OA
BRANCH  14  16
ATOM     16  C   UNL     1      -4.804  -1.128 -27.837  1.00  0.00     0.062 C 
ATOM     17  C   UNL     1      -4.902  -2.540 -27.238  1.00  0.00     0.023 C 
ATOM     18  C   UNL     1      -4.127  -0.203 -26.810  1.00  0.00     0.023 C 
BRANCH  16  19
ATOM     19  C   UNL     1      -4.019  -1.125 -29.175  1.00  0.00     0.015 C 
ATOM     20  C   UNL     1      -2.616  -0.531 -29.120  1.00  0.00     0.005 C 
ENDBRANCH  16  19
ENDBRANCH  14  16
ENDBRANCH  13  14
ENDBRANCH   1  13
BRANCH   7  21
ATOM     21  C   UNL     1      -9.046  -1.210 -30.635  1.00  0.00     0.009 C 
BRANCH  21  22
ATOM     22  C   UNL     1      -8.722  -2.710 -30.719  1.00  0.00     0.046 C 
BRANCH  22  23
ATOM     23  C   UNL     1      -9.646  -3.547 -29.821  1.00  0.00     0.179 C 
ATOM     24  C   UNL     1      -8.935  -3.940 -28.535  1.00  0.00     0.077 C 
ATOM     25  O   UNL     1     -10.047  -4.713 -30.564  1.00  0.00    -0.462 OA
ATOM     26  C   UNL     1      -9.859  -4.821 -27.716  1.00  0.00     0.129 C 
ATOM     27  C   UNL     1     -10.672  -5.743 -29.950  1.00  0.00     0.308 C 
ATOM     28  C   UNL     1     -10.314  -6.024 -28.514  1.00  0.00     0.154 C 
ATOM     29  O   UNL     1     -11.378  -6.520 -30.588  1.00  0.00    -0.252 OA
BRANCH  26  30
ATOM     30  O   UNL     1     -10.980  -4.050 -27.288  1.00  0.00    -0.392 OA
ATOM     31  H   UNL     1     -10.672  -3.409 -26.622  1.00  0.00     0.210 HD
ENDBRANCH  26  30
ENDBRANCH  22  23
ENDBRANCH  21  22
ENDBRANCH   7  21
TORSDOF 8
ENDMDL
MODEL 3
REMARK VINA RESULT:      -8.9      1.090      1.929
REMARK SMILES CCC(C)(C)C(=O)O[C@H]1C[C@@H](C)C=C2C=C[C@H](C)[C@H](CC[C@@H]3C[C@@H](O)CC(=O)O3)[C@H]21
REMARK SMILES IDX 9 1 10 2 11 3 13 4 14 5 30 6 19 7 17 8 16 9 15 10 18 11
REMARK SMILES IDX 12 12 8 13 6 14 7 15 3 16 4 17 5 18 2 19 1 20 20 21 21 22
REMARK SMILES IDX 22 23 23 24 29 25 24 26 27 27 26 28 28 29 25 30
REMARK H PARENT 25 31
ROOT
ATOM      1  C   UNL     1      -7.527   0.906 -29.519  1.00  0.00     0.185 C 
ATOM      2  C   UNL     1      -6.914   2.311 -29.571  1.00  0.00     0.053 C 
ATOM      3  C   UNL     1      -6.062   2.567 -30.823  1.00  0.00     0.012 C 
ATOM      4  C   UNL     1      -6.633   1.922 -32.057  1.00  0.00    -0.020 C 
ATOM      5  C   UNL     1      -7.665   1.059 -32.060  1.00  0.00    -0.045 C 
ATOM      6  C   UNL     1      -8.382   0.621 -30.783  1.00  0.00     0.063 C 
ATOM      7  C   UNL     1      -8.854  -0.867 -30.897  1.00  0.00     0.007 C 
ATOM      8  C   UNL     1      -9.728  -1.065 -32.173  1.00  0.00     0.012 C 
ATOM      9  C   UNL     1      -9.081  -0.438 -33.383  1.00  0.00    -0.023 C 
ATOM     10  C   UNL     1      -8.137   0.509 -33.316  1.00  0.00    -0.000 C 
ATOM     11  C   UNL     1     -11.160  -0.532 -32.055  1.00  0.00     0.012 C 
ATOM     12  C   UNL     1      -4.605   2.137 -30.632  1.00  0.00     0.012 C 
ENDROOT
BRANCH   1  13
ATOM     13  O   UNL     1      -6.506  -0.106 -29.397  1.00  0.00    -0.461 OA
BRANCH  13  14
ATOM     14  C   UNL     1      -6.137  -0.461 -28.139  1.00  0.00     0.311 C 
ATOM     15  O   UNL     1      -6.816  -0.259 -27.139  1.00  0.00    -0.252 OA
BRANCH  14  16
ATOM     16  C   UNL     1      -4.777  -1.174 -28.109  1.00  0.00     0.062 C 
ATOM     17  C   UNL     1      -4.447  -1.568 -29.558  1.00  0.00     0.023 C 
ATOM     18  C   UNL     1      -4.799  -2.448 -27.245  1.00  0.00     0.023 C 
BRANCH  16  19
ATOM     19  C   UNL     1      -3.756  -0.151 -27.545  1.00  0.00     0.015 C 
ATOM     20  C   UNL     1      -2.493   0.052 -28.373  1.00  0.00     0.005 C 
ENDBRANCH  16  19
ENDBRANCH  14  16
ENDBRANCH  13  14
ENDBRANCH   1  13
BRANCH   7  21
ATOM     21  C   UNL     1      -9.536  -1.381 -29.605  1.00  0.00     0.009 C 
BRANCH  21  22
ATOM     22  C   UNL     1      -9.085  -2.791 -29.192  1.00  0.00     0.046 C 
BRANCH  22  23
ATOM     23  C   UNL     1     -10.101  -3.466 -28.258  1.00  0.00     0.179 C 
ATOM     24  C   UNL     1     -10.005  -2.892 -26.853  1.00  0.00     0.077 C 
ATOM     25  O   UNL     1      -9.828  -4.880 -28.256  1.00  0.00    -0.462 OA
ATOM     26  C   UNL     1     -10.973  -3.636 -25.954  1.00  0.00     0.129 C 
ATOM     27  C   UNL     1     -10.412  -5.695 -27.349  1.00  0.00     0.308 C 
ATOM     28  C   UNL     1     -10.712  -5.127 -25.987  1.00  0.00     0.154 C 
ATOM     29  O   UNL     1     -10.538  -6.896 -27.574  1.00  0.00    -0.252 OA
BRANCH  26  30
ATOM     30  O   UNL     1     -12.307  -3.351 -26.370  1.00  0.00    -0.392 OA
ATOM     31  H   UNL     1     -12.270  -2.940 -27.252  1.00  0.00     0.210 HD
ENDBRANCH  26  30
ENDBRANCH  22  23
ENDBRANCH  21  22
ENDBRANCH   7  21
TORSDOF 8
ENDMDL
MODEL 4
REMARK VINA RESULT:      -8.8      2.062      5.754
REMARK SMILES CCC(C)(C)C(=O)O[C@H]1C[C@@H](C)C=C2C=C[C@H](C)[C@H](CC[C@@H]3C[C@@H](O)CC(=O)O3)[C@H]21
REMARK SMILES IDX 9 1 10 2 11 3 13 4 14 5 30 6 19 7 17 8 16 9 15 10 18 11
REMARK SMILES IDX 12 12 8 13 6 14 7 15 3 16 4 17 5 18 2 19 1 20 20 21 21 22
REMARK SMILES IDX 22 23 23 24 29 25 24 26 27 27 26 28 28 29 25 30
REMARK H PARENT 25 31
ROOT
ATOM      1  C   UNL     1      -7.298  -1.901 -30.353  1.00  0.00     0.185 C 
ATOM      2  C   UNL     1      -7.766  -3.327 -30.035  1.00  0.00     0.053 C 
ATOM      3  C   UNL     1      -9.229  -3.408 -29.578  1.00  0.00     0.012 C 
ATOM      4  C   UNL     1     -10.122  -2.443 -30.311  1.00  0.00    -0.020 C 
ATOM      5  C   UNL     1      -9.686  -1.477 -31.139  1.00  0.00    -0.045 C 
ATOM      6  C   UNL     1      -8.204  -1.241 -31.429  1.00  0.00     0.063 C 
ATOM      7  C   UNL     1      -7.917   0.283 -31.638  1.00  0.00     0.007 C 
ATOM      8  C   UNL     1      -8.845   0.863 -32.750  1.00  0.00     0.012 C 
ATOM      9  C   UNL     1     -10.277   0.439 -32.545  1.00  0.00    -0.023 C 
ATOM     10  C   UNL     1     -10.643  -0.612 -31.799  1.00  0.00    -0.000 C 
ATOM     11  C   UNL     1      -8.429   0.501 -34.181  1.00  0.00     0.012 C 
ATOM     12  C   UNL     1      -9.378  -3.217 -28.066  1.00  0.00     0.012 C 
ENDROOT
BRANCH   1  13
ATOM     13  O   UNL     1      -7.287  -1.077 -29.170  1.00  0.00    -0.461 OA
BRANCH  13  14
ATOM     14  C   UNL     1      -6.285  -1.290 -28.279  1.00  0.00     0.311 C 
ATOM     15  O   UNL     1      -5.387  -2.109 -28.435  1.00  0.00    -0.252 OA
BRANCH  14  16
ATOM     16  C   UNL     1      -6.384  -0.365 -27.056  1.00  0.00     0.062 C 
ATOM     17  C   UNL     1      -7.436  -0.976 -26.117  1.00  0.00     0.023 C 
ATOM     18  C   UNL     1      -6.826   1.061 -27.431  1.00  0.00     0.023 C 
BRANCH  16  19
ATOM     19  C   UNL     1      -4.976  -0.345 -26.405  1.00  0.00     0.015 C 
ATOM     20  C   UNL     1      -4.944  -0.118 -24.899  1.00  0.00     0.005 C 
ENDBRANCH  16  19
ENDBRANCH  14  16
ENDBRANCH  13  14
ENDBRANCH   1  13
BRANCH   7  21
ATOM     21  C   UNL     1      -6.417   0.584 -31.877  1.00  0.00     0.009 C 
BRANCH  21  22
ATOM     22  C   UNL     1      -5.815   1.555 -30.849  1.00  0.00     0.046 C 
BRANCH  22  23
ATOM     23  C   UNL     1      -4.325   1.273 -30.600  1.00  0.00     0.179 C 
ATOM     24  C   UNL     1      -4.010  -0.198 -30.826  1.00  0.00     0.077 C 
ATOM     25  O   UNL     1      -4.021   1.663 -29.248  1.00  0.00    -0.462 OA
ATOM     26  C   UNL     1      -2.549  -0.440 -30.501  1.00  0.00     0.129 C 
ATOM     27  C   UNL     1      -2.846   1.317 -28.677  1.00  0.00     0.308 C 
ATOM     28  C   UNL     1      -2.222   0.011 -29.093  1.00  0.00     0.154 C 
ATOM     29  O   UNL     1      -2.391   1.961 -27.735  1.00  0.00    -0.252 OA
BRANCH  26  30
ATOM     30  O   UNL     1      -1.740   0.252 -31.450  1.00  0.00    -0.392 OA
ATOM     31  H   UNL     1      -2.305   0.888 -31.925  1.00  0.00     0.210 HD
ENDBRANCH  26  30
ENDBRANCH  22  23
ENDBRANCH  21  22
ENDBRANCH   7  21
TORSDOF 8
ENDMDL
MODEL 5
REMARK VINA RESULT:      -8.7      2.732      5.515
REMARK SMILES CCC(C)(C)C(=O)O[C@H]1C[C@@H](C)C=C2C=C[C@H](C)[C@H](CC[C@@H]3C[C@@H](O)CC(=O)O3)[C@H]21
REMARK SMILES IDX 9 1 10 2 11 3 13 4 14 5 30 6 19 7 17 8 16 9 15 10 18 11
REMARK SMILES IDX 12 12 8 13 6 14 7 15 3 16 4 17 5 18 2 19 1 20 20 21 21 22
REMARK SMILES IDX 22 23 23 24 29 25 24 26 27 27 26 28 28 29 25 30
REMARK H PARENT 25 31
ROOT
ATOM      1  C   UNL     1      -6.287  -1.332 -28.325  1.00  0.00     0.185 C 
ATOM      2  C   UNL     1      -5.019  -1.856 -27.638  1.00  0.00     0.053 C 
ATOM      3  C   UNL     1      -4.515  -0.952 -26.504  1.00  0.00     0.012 C 
ATOM      4  C   UNL     1      -5.634  -0.342 -25.706  1.00  0.00    -0.020 C 
ATOM      5  C   UNL     1      -6.935  -0.407 -26.039  1.00  0.00    -0.045 C 
ATOM      6  C   UNL     1      -7.433  -1.119 -27.298  1.00  0.00     0.063 C 
ATOM      7  C   UNL     1      -8.678  -0.382 -27.894  1.00  0.00     0.007 C 
ATOM      8  C   UNL     1      -9.791  -0.231 -26.812  1.00  0.00     0.012 C 
ATOM      9  C   UNL     1      -9.225   0.283 -25.512  1.00  0.00    -0.023 C 
ATOM     10  C   UNL     1      -7.929   0.212 -25.184  1.00  0.00    -0.000 C 
ATOM     11  C   UNL     1     -10.581  -1.514 -26.526  1.00  0.00     0.012 C 
ATOM     12  C   UNL     1      -3.571   0.142 -27.008  1.00  0.00     0.012 C 
ENDROOT
BRANCH   1  13
ATOM     13  O   UNL     1      -6.034  -0.094 -29.020  1.00  0.00    -0.461 OA
BRANCH  13  14
ATOM     14  C   UNL     1      -5.608  -0.185 -30.305  1.00  0.00     0.311 C 
ATOM     15  O   UNL     1      -6.092  -0.941 -31.140  1.00  0.00    -0.252 OA
BRANCH  14  16
ATOM     16  C   UNL     1      -4.462   0.792 -30.612  1.00  0.00     0.062 C 
ATOM     17  C   UNL     1      -4.584   1.172 -32.096  1.00  0.00     0.023 C 
ATOM     18  C   UNL     1      -3.076   0.166 -30.375  1.00  0.00     0.023 C 
BRANCH  16  19
ATOM     19  C   UNL     1      -4.671   2.019 -29.686  1.00  0.00     0.015 C 
ATOM     20  C   UNL     1      -4.907   3.349 -30.390  1.00  0.00     0.005 C 
ENDBRANCH  16  19
ENDBRANCH  14  16
ENDBRANCH  13  14
ENDBRANCH   1  13
BRANCH   7  21
ATOM     21  C   UNL     1      -9.186  -1.029 -29.206  1.00  0.00     0.009 C 
BRANCH  21  22
ATOM     22  C   UNL     1     -10.373  -0.283 -29.838  1.00  0.00     0.046 C 
BRANCH  22  23
ATOM     23  C   UNL     1     -10.077   0.140 -31.285  1.00  0.00     0.179 C 
ATOM     24  C   UNL     1      -9.810  -1.077 -32.158  1.00  0.00     0.077 C 
ATOM     25  O   UNL     1      -8.937   1.019 -31.265  1.00  0.00    -0.462 OA
ATOM     26  C   UNL     1      -9.455  -0.606 -33.555  1.00  0.00     0.129 C 
ATOM     27  C   UNL     1      -8.309   1.363 -32.411  1.00  0.00     0.308 C 
ATOM     28  C   UNL     1      -8.283   0.351 -33.527  1.00  0.00     0.154 C 
ATOM     29  O   UNL     1      -7.643   2.393 -32.478  1.00  0.00    -0.252 OA
BRANCH  26  30
ATOM     30  O   UNL     1     -10.597   0.015 -34.142  1.00  0.00    -0.392 OA
ATOM     31  H   UNL     1     -10.286   0.669 -34.793  1.00  0.00     0.210 HD
ENDBRANCH  26  30
ENDBRANCH  22  23
ENDBRANCH  21  22
ENDBRANCH   7  21
TORSDOF 8
ENDMDL
MODEL 6
REMARK VINA RESULT:      -8.5      3.225      8.432
REMARK SMILES CCC(C)(C)C(=O)O[C@H]1C[C@@H](C)C=C2C=C[C@H](C)[C@H](CC[C@@H]3C[C@@H](O)CC(=O)O3)[C@H]21
REMARK SMILES IDX 9 1 10 2 11 3 13 4 14 5 30 6 19 7 17 8 16 9 15 10 18 11
REMARK SMILES IDX 12 12 8 13 6 14 7 15 3 16 4 17 5 18 2 19 1 20 20 21 21 22
REMARK SMILES IDX 22 23 23 24 29 25 24 26 27 27 26 28 28 29 25 30
REMARK H PARENT 25 31
ROOT
ATOM      1  C   UNL     1      -6.863   0.008 -28.810  1.00  0.00     0.185 C 
ATOM      2  C   UNL     1      -7.498  -1.202 -28.112  1.00  0.00     0.053 C 
ATOM      3  C   UNL     1      -6.875  -2.545 -28.517  1.00  0.00     0.012 C 
ATOM      4  C   UNL     1      -5.386  -2.458 -28.718  1.00  0.00    -0.020 C 
ATOM      5  C   UNL     1      -4.683  -1.312 -28.736  1.00  0.00    -0.045 C 
ATOM      6  C   UNL     1      -5.332   0.061 -28.556  1.00  0.00     0.063 C 
ATOM      7  C   UNL     1      -4.592   1.139 -29.416  1.00  0.00     0.007 C 
ATOM      8  C   UNL     1      -3.068   1.149 -29.083  1.00  0.00     0.012 C 
ATOM      9  C   UNL     1      -2.502  -0.249 -29.069  1.00  0.00    -0.023 C 
ATOM     10  C   UNL     1      -3.246  -1.353 -28.928  1.00  0.00    -0.000 C 
ATOM     11  C   UNL     1      -2.709   1.835 -27.760  1.00  0.00     0.012 C 
ATOM     12  C   UNL     1      -7.539  -3.144 -29.759  1.00  0.00     0.012 C 
ENDROOT
BRANCH   1  13
ATOM     13  O   UNL     1      -7.109  -0.020 -30.231  1.00  0.00    -0.461 OA
BRANCH  13  14
ATOM     14  C   UNL     1      -8.364   0.291 -30.646  1.00  0.00     0.311 C 
ATOM     15  O   UNL     1      -9.371   0.145 -29.963  1.00  0.00    -0.252 OA
BRANCH  14  16
ATOM     16  C   UNL     1      -8.382   0.876 -32.066  1.00  0.00     0.062 C 
ATOM     17  C   UNL     1      -6.932   1.254 -32.412  1.00  0.00     0.023 C 
ATOM     18  C   UNL     1      -9.258   2.138 -32.172  1.00  0.00     0.023 C 
BRANCH  16  19
ATOM     19  C   UNL     1      -8.922  -0.242 -32.996  1.00  0.00     0.015 C 
ATOM     20  C   UNL     1     -10.184   0.099 -33.780  1.00  0.00     0.005 C 
ENDBRANCH  16  19
ENDBRANCH  14  16
ENDBRANCH  13  14
ENDBRANCH   1  13
BRANCH   7  21
ATOM     21  C   UNL     1      -5.247   2.538 -29.317  1.00  0.00     0.009 C 
BRANCH  21  22
ATOM     22  C   UNL     1      -4.763   3.521 -30.395  1.00  0.00     0.046 C 
BRANCH  22  23
ATOM     23  C   UNL     1      -3.814   4.582 -29.817  1.00  0.00     0.179 C 
ATOM     24  C   UNL     1      -4.441   5.266 -28.611  1.00  0.00     0.077 C 
ATOM     25  O   UNL     1      -3.530   5.535 -30.858  1.00  0.00    -0.462 OA
ATOM     26  C   UNL     1      -3.502   6.350 -28.121  1.00  0.00     0.129 C 
ATOM     27  C   UNL     1      -2.911   6.703 -30.576  1.00  0.00     0.308 C 
ATOM     28  C   UNL     1      -3.170   7.327 -29.230  1.00  0.00     0.154 C 
ATOM     29  O   UNL     1      -2.296   7.315 -31.447  1.00  0.00    -0.252 OA
BRANCH  26  30
ATOM     30  O   UNL     1      -2.314   5.744 -27.615  1.00  0.00    -0.392 OA
ATOM     31  H   UNL     1      -1.813   5.382 -28.368  1.00  0.00     0.210 HD
ENDBRANCH  26  30
ENDBRANCH  22  23
ENDBRANCH  21  22
ENDBRANCH   7  21
TORSDOF 8
ENDMDL
MODEL 7
REMARK VINA RESULT:      -8.4      1.823      2.283
REMARK SMILES CCC(C)(C)C(=O)O[C@H]1C[C@@H](C)C=C2C=C[C@H](C)[C@H](CC[C@@H]3C[C@@H](O)CC(=O)O3)[C@H]21
REMARK SMILES IDX 9 1 10 2 11 3 13 4 14 5 30 6 19 7 17 8 16 9 15 10 18 11
REMARK SMILES IDX 12 12 8 13 6 14 7 15 3 16 4 17 5 18 2 19 1 20 20 21 21 22
REMARK SMILES IDX 22 23 23 24 29 25 24 26 27 27 26 28 28 29 25 30
REMARK H PARENT 25 31
ROOT
ATOM      1  C   UNL     1      -7.335   1.433 -29.269  1.00  0.00     0.185 C 
ATOM      2  C   UNL     1      -6.578   2.765 -29.215  1.00  0.00     0.053 C 
ATOM      3  C   UNL     1      -5.481   2.895 -30.283  1.00  0.00     0.012 C 
ATOM      4  C   UNL     1      -5.874   2.277 -31.597  1.00  0.00    -0.020 C 
ATOM      5  C   UNL     1      -6.972   1.525 -31.791  1.00  0.00    -0.045 C 
ATOM      6  C   UNL     1      -7.961   1.201 -30.671  1.00  0.00     0.063 C 
ATOM      7  C   UNL     1      -8.558  -0.233 -30.860  1.00  0.00     0.007 C 
ATOM      8  C   UNL     1      -9.191  -0.377 -32.279  1.00  0.00     0.012 C 
ATOM      9  C   UNL     1      -8.264   0.144 -33.347  1.00  0.00    -0.023 C 
ATOM     10  C   UNL     1      -7.254   0.991 -33.109  1.00  0.00    -0.000 C 
ATOM     11  C   UNL     1     -10.555   0.304 -32.441  1.00  0.00     0.012 C 
ATOM     12  C   UNL     1      -4.141   2.323 -29.813  1.00  0.00     0.012 C 
ENDROOT
BRANCH   1  13
ATOM     13  O   UNL     1      -6.470   0.325 -28.945  1.00  0.00    -0.461 OA
BRANCH  13  14
ATOM     14  C   UNL     1      -6.149   0.157 -27.637  1.00  0.00     0.311 C 
ATOM     15  O   UNL     1      -6.805   0.601 -26.703  1.00  0.00    -0.252 OA
BRANCH  14  16
ATOM     16  C   UNL     1      -4.876  -0.684 -27.452  1.00  0.00     0.062 C 
ATOM     17  C   UNL     1      -5.186  -1.733 -26.372  1.00  0.00     0.023 C 
ATOM     18  C   UNL     1      -3.675   0.161 -26.988  1.00  0.00     0.023 C 
BRANCH  16  19
ATOM     19  C   UNL     1      -4.581  -1.343 -28.825  1.00  0.00     0.015 C 
ATOM     20  C   UNL     1      -3.119  -1.355 -29.255  1.00  0.00     0.005 C 
ENDBRANCH  16  19
ENDBRANCH  14  16
ENDBRANCH  13  14
ENDBRANCH   1  13
BRANCH   7  21
ATOM     21  C   UNL     1      -9.524  -0.636 -29.718  1.00  0.00     0.009 C 
BRANCH  21  22
ATOM     22  C   UNL     1      -9.103  -1.918 -28.983  1.00  0.00     0.046 C 
BRANCH  22  23
ATOM     23  C   UNL     1      -9.784  -2.041 -27.611  1.00  0.00     0.179 C 
ATOM     24  C   UNL     1     -10.864  -0.981 -27.449  1.00  0.00     0.077 C 
ATOM     25  O   UNL     1      -8.769  -1.899 -26.599  1.00  0.00    -0.462 OA
ATOM     26  C   UNL     1     -11.456  -1.096 -26.058  1.00  0.00     0.129 C 
ATOM     27  C   UNL     1      -9.106  -1.732 -25.301  1.00  0.00     0.308 C 
ATOM     28  C   UNL     1     -10.381  -0.990 -24.997  1.00  0.00     0.154 C 
ATOM     29  O   UNL     1      -8.318  -2.026 -24.405  1.00  0.00    -0.252 OA
BRANCH  26  30
ATOM     30  O   UNL     1     -12.148  -2.338 -25.947  1.00  0.00    -0.392 OA
ATOM     31  H   UNL     1     -12.907  -2.318 -26.558  1.00  0.00     0.210 HD
ENDBRANCH  26  30
ENDBRANCH  22  23
ENDBRANCH  21  22
ENDBRANCH   7  21
TORSDOF 8
ENDMDL
MODEL 8
REMARK VINA RESULT:      -8.4      1.978      5.370
REMARK SMILES CCC(C)(C)C(=O)O[C@H]1C[C@@H](C)C=C2C=C[C@H](C)[C@H](CC[C@@H]3C[C@@H](O)CC(=O)O3)[C@H]21
REMARK SMILES IDX 9 1 10 2 11 3 13 4 14 5 30 6 19 7 17 8 16 9 15 10 18 11
REMARK SMILES IDX 12 12 8 13 6 14 7 15 3 16 4 17 5 18 2 19 1 20 20 21 21 22
REMARK SMILES IDX 22 23 23 24 29 25 24 26 27 27 26 28 28 29 25 30
REMARK H PARENT 25 31
ROOT
ATOM      1  C   UNL     1      -5.568  -1.491 -29.011  1.00  0.00     0.185 C 
ATOM      2  C   UNL     1      -4.265  -1.935 -29.687  1.00  0.00     0.053 C 
ATOM      3  C   UNL     1      -3.103  -0.950 -29.494  1.00  0.00     0.012 C 
ATOM      4  C   UNL     1      -3.094  -0.323 -28.126  1.00  0.00    -0.020 C 
ATOM      5  C   UNL     1      -4.082  -0.446 -27.222  1.00  0.00    -0.045 C 
ATOM      6  C   UNL     1      -5.356  -1.247 -27.492  1.00  0.00     0.063 C 
ATOM      7  C   UNL     1      -6.586  -0.585 -26.787  1.00  0.00     0.007 C 
ATOM      8  C   UNL     1      -6.306  -0.400 -25.264  1.00  0.00     0.012 C 
ATOM      9  C   UNL     1      -4.947   0.210 -25.027  1.00  0.00    -0.023 C 
ATOM     10  C   UNL     1      -3.957   0.196 -25.928  1.00  0.00    -0.000 C 
ATOM     11  C   UNL     1      -6.416  -1.685 -24.434  1.00  0.00     0.012 C 
ATOM     12  C   UNL     1      -3.078   0.139 -30.570  1.00  0.00     0.012 C 
ENDROOT
BRANCH   1  13
ATOM     13  O   UNL     1      -6.091  -0.291 -29.617  1.00  0.00    -0.461 OA
BRANCH  13  14
ATOM     14  C   UNL     1      -7.010  -0.448 -30.603  1.00  0.00     0.311 C 
ATOM     15  O   UNL     1      -7.420  -1.534 -30.996  1.00  0.00    -0.252 OA
BRANCH  14  16
ATOM     16  C   UNL     1      -7.505   0.896 -31.160  1.00  0.00     0.062 C 
ATOM     17  C   UNL     1      -6.974   1.991 -30.222  1.00  0.00     0.023 C 
ATOM     18  C   UNL     1      -9.041   0.985 -31.203  1.00  0.00     0.023 C 
BRANCH  16  19
ATOM     19  C   UNL     1      -6.912   1.025 -32.588  1.00  0.00     0.015 C 
ATOM     20  C   UNL     1      -7.885   0.780 -33.735  1.00  0.00     0.005 C 
ENDBRANCH  16  19
ENDBRANCH  14  16
ENDBRANCH  13  14
ENDBRANCH   1  13
BRANCH   7  21
ATOM     21  C   UNL     1      -7.915  -1.325 -27.077  1.00  0.00     0.009 C 
BRANCH  21  22
ATOM     22  C   UNL     1      -9.146  -0.641 -26.461  1.00  0.00     0.046 C 
BRANCH  22  23
ATOM     23  C   UNL     1     -10.171  -1.663 -25.947  1.00  0.00     0.179 C 
ATOM     24  C   UNL     1     -10.174  -1.704 -24.426  1.00  0.00     0.077 C 
ATOM     25  O   UNL     1      -9.827  -2.949 -26.495  1.00  0.00    -0.462 OA
ATOM     26  C   UNL     1     -11.146  -2.774 -23.969  1.00  0.00     0.129 C 
ATOM     27  C   UNL     1     -10.413  -4.076 -26.034  1.00  0.00     0.308 C 
ATOM     28  C   UNL     1     -10.808  -4.117 -24.581  1.00  0.00     0.154 C 
ATOM     29  O   UNL     1     -10.466  -5.087 -26.731  1.00  0.00    -0.252 OA
BRANCH  26  30
ATOM     30  O   UNL     1     -12.471  -2.381 -24.321  1.00  0.00    -0.392 OA
ATOM     31  H   UNL     1     -12.493  -2.211 -25.280  1.00  0.00     0.210 HD
ENDBRANCH  26  30
ENDBRANCH  22  23
ENDBRANCH  21  22
ENDBRANCH   7  21
TORSDOF 8
ENDMDL
MODEL 9
REMARK VINA RESULT:      -8.4      3.036      4.658
REMARK SMILES CCC(C)(C)C(=O)O[C@H]1C[C@@H](C)C=C2C=C[C@H](C)[C@H](CC[C@@H]3C[C@@H](O)CC(=O)O3)[C@H]21
REMARK SMILES IDX 9 1 10 2 11 3 13 4 14 5 30 6 19 7 17 8 16 9 15 10 18 11
REMARK SMILES IDX 12 12 8 13 6 14 7 15 3 16 4 17 5 18 2 19 1 20 20 21 21 22
REMARK SMILES IDX 22 23 23 24 29 25 24 26 27 27 26 28 28 29 25 30
REMARK H PARENT 25 31
ROOT
ATOM      1  C   UNL     1      -6.974   1.420 -28.898  1.00  0.00     0.185 C 
ATOM      2  C   UNL     1      -7.029   2.266 -30.176  1.00  0.00     0.053 C 
ATOM      3  C   UNL     1      -7.127   1.433 -31.463  1.00  0.00     0.012 C 
ATOM      4  C   UNL     1      -7.993   0.213 -31.301  1.00  0.00    -0.020 C 
ATOM      5  C   UNL     1      -8.483  -0.227 -30.128  1.00  0.00    -0.045 C 
ATOM      6  C   UNL     1      -8.202   0.474 -28.799  1.00  0.00     0.063 C 
ATOM      7  C   UNL     1      -8.097  -0.567 -27.636  1.00  0.00     0.007 C 
ATOM      8  C   UNL     1      -9.377  -1.458 -27.585  1.00  0.00     0.012 C 
ATOM      9  C   UNL     1      -9.743  -1.969 -28.956  1.00  0.00    -0.023 C 
ATOM     10  C   UNL     1      -9.317  -1.412 -30.097  1.00  0.00    -0.000 C 
ATOM     11  C   UNL     1     -10.606  -0.774 -26.975  1.00  0.00     0.012 C 
ATOM     12  C   UNL     1      -5.752   1.033 -32.004  1.00  0.00     0.012 C 
ENDROOT
BRANCH   1  13
ATOM     13  O   UNL     1      -5.765   0.636 -28.840  1.00  0.00    -0.461 OA
BRANCH  13  14
ATOM     14  C   UNL     1      -4.670   1.232 -28.302  1.00  0.00     0.311 C 
ATOM     15  O   UNL     1      -4.446   2.436 -28.350  1.00  0.00    -0.252 OA
BRANCH  14  16
ATOM     16  C   UNL     1      -3.746   0.227 -27.595  1.00  0.00     0.062 C 
ATOM     17  C   UNL     1      -4.157  -1.173 -28.078  1.00  0.00     0.023 C 
ATOM     18  C   UNL     1      -3.883   0.280 -26.063  1.00  0.00     0.023 C 
BRANCH  16  19
ATOM     19  C   UNL     1      -2.299   0.582 -28.026  1.00  0.00     0.015 C 
ATOM     20  C   UNL     1      -1.914   0.189 -29.447  1.00  0.00     0.005 C 
ENDBRANCH  16  19
ENDBRANCH  14  16
ENDBRANCH  13  14
ENDBRANCH   1  13
BRANCH   7  21
ATOM     21  C   UNL     1      -7.755   0.086 -26.274  1.00  0.00     0.009 C 
BRANCH  21  22
ATOM     22  C   UNL     1      -7.170  -0.900 -25.250  1.00  0.00     0.046 C 
BRANCH  22  23
ATOM     23  C   UNL     1      -8.201  -1.292 -24.180  1.00  0.00     0.179 C 
ATOM     24  C   UNL     1      -8.497  -0.116 -23.262  1.00  0.00     0.077 C 
ATOM     25  O   UNL     1      -7.666  -2.403 -23.437  1.00  0.00    -0.462 OA
ATOM     26  C   UNL     1      -9.461  -0.569 -22.183  1.00  0.00     0.129 C 
ATOM     27  C   UNL     1      -8.249  -2.810 -22.287  1.00  0.00     0.308 C 
ATOM     28  C   UNL     1      -8.916  -1.765 -21.431  1.00  0.00     0.154 C 
ATOM     29  O   UNL     1      -8.094  -3.957 -21.875  1.00  0.00    -0.252 OA
BRANCH  26  30
ATOM     30  O   UNL     1     -10.716  -0.884 -22.783  1.00  0.00    -0.392 OA
ATOM     31  H   UNL     1     -10.684  -0.612 -23.718  1.00  0.00     0.210 HD
ENDBRANCH  26  30
ENDBRANCH  22  23
ENDBRANCH  21  22
ENDBRANCH   7  21
TORSDOF 8
ENDMDL
MODEL 10
REMARK VINA RESULT:      -8.4      2.682      6.393
REMARK SMILES CCC(C)(C)C(=O)O[C@H]1C[C@@H](C)C=C2C=C[C@H](C)[C@H](CC[C@@H]3C[C@@H](O)CC(=O)O3)[C@H]21
REMARK SMILES IDX 9 1 10 2 11 3 13 4 14 5 30 6 19 7 17 8 16 9 15 10 18 11
REMARK SMILES IDX 12 12 8 13 6 14 7 15 3 16 4 17 5 18 2 19 1 20 20 21 21 22
REMARK SMILES IDX 22 23 23 24 29 25 24 26 27 27 26 28 28 29 25 30
REMARK H PARENT 25 31
ROOT
ATOM      1  C   UNL     1      -8.216  -0.432 -26.375  1.00  0.00     0.185 C 
ATOM      2  C   UNL     1      -8.063   0.271 -25.020  1.00  0.00     0.053 C 
ATOM      3  C   UNL     1      -7.116  -0.455 -24.053  1.00  0.00     0.012 C 
ATOM      4  C   UNL     1      -5.931  -1.067 -24.750  1.00  0.00    -0.020 C 
ATOM      5  C   UNL     1      -5.787  -1.150 -26.084  1.00  0.00    -0.045 C 
ATOM      6  C   UNL     1      -6.838  -0.627 -27.064  1.00  0.00     0.063 C 
ATOM      7  C   UNL     1      -6.900  -1.529 -28.341  1.00  0.00     0.007 C 
ATOM      8  C   UNL     1      -5.486  -1.653 -28.989  1.00  0.00     0.012 C 
ATOM      9  C   UNL     1      -4.436  -1.970 -27.954  1.00  0.00    -0.023 C 
ATOM     10  C   UNL     1      -4.593  -1.753 -26.643  1.00  0.00    -0.000 C 
ATOM     11  C   UNL     1      -5.036  -0.419 -29.779  1.00  0.00     0.012 C 
ATOM     12  C   UNL     1      -7.839  -1.514 -23.217  1.00  0.00     0.012 C 
ENDROOT
BRANCH   1  13
ATOM     13  O   UNL     1      -8.862  -1.713 -26.230  1.00  0.00    -0.461 OA
BRANCH  13  14
ATOM     14  C   UNL     1     -10.213  -1.740 -26.361  1.00  0.00     0.311 C 
ATOM     15  O   UNL     1     -10.899  -0.763 -26.638  1.00  0.00    -0.252 OA
BRANCH  14  16
ATOM     16  C   UNL     1     -10.792  -3.148 -26.150  1.00  0.00     0.062 C 
ATOM     17  C   UNL     1     -10.267  -4.024 -27.299  1.00  0.00     0.023 C 
ATOM     18  C   UNL     1     -12.331  -3.162 -26.183  1.00  0.00     0.023 C 
BRANCH  16  19
ATOM     19  C   UNL     1     -10.272  -3.635 -24.772  1.00  0.00     0.015 C 
ATOM     20  C   UNL     1     -11.134  -3.269 -23.570  1.00  0.00     0.005 C 
ENDBRANCH  16  19
ENDBRANCH  14  16
ENDBRANCH  13  14
ENDBRANCH   1  13
BRANCH   7  21
ATOM     21  C   UNL     1      -7.992  -1.077 -29.342  1.00  0.00     0.009 C 
BRANCH  21  22
ATOM     22  C   UNL     1      -8.013  -1.901 -30.640  1.00  0.00     0.046 C 
BRANCH  22  23
ATOM     23  C   UNL     1      -8.442  -1.054 -31.848  1.00  0.00     0.179 C 
ATOM     24  C   UNL     1      -7.849   0.344 -31.763  1.00  0.00     0.077 C 
ATOM     25  O   UNL     1      -9.881  -1.003 -31.864  1.00  0.00    -0.462 OA
ATOM     26  C   UNL     1      -8.357   1.161 -32.936  1.00  0.00     0.129 C 
ATOM     27  C   UNL     1     -10.533  -0.141 -32.676  1.00  0.00     0.308 C 
ATOM     28  C   UNL     1      -9.870   1.178 -32.975  1.00  0.00     0.154 C 
ATOM     29  O   UNL     1     -11.693  -0.356 -33.018  1.00  0.00    -0.252 OA
BRANCH  26  30
ATOM     30  O   UNL     1      -7.829   0.618 -34.144  1.00  0.00    -0.392 OA
ATOM     31  H   UNL     1      -7.986   1.261 -34.860  1.00  0.00     0.210 HD
ENDBRANCH  26  30
ENDBRANCH  22  23
ENDBRANCH  21  22
ENDBRANCH   7  21
TORSDOF 8
ENDMDL
