MODEL 1
REMARK VINA RESULT:      -6.5      0.000      0.000
REMARK SMILES CCOC(=O)c1ccccc1N
REMARK SMILES IDX 4 1 5 2 3 3 2 4 1 5 6 6 7 7 11 8 8 9 10 10 9 11 12 12
REMARK H PARENT 12 13 12 14
ROOT
ATOM      1  C   UNL     1       6.712  -2.455 -20.383  1.00  0.00     0.340 C 
ATOM      2  O   UNL     1       7.306  -3.480 -20.686  1.00  0.00    -0.246 OA
ENDROOT
BRANCH   1   3
ATOM      3  O   UNL     1       5.849  -1.771 -21.178  1.00  0.00    -0.462 OA
BRANCH   3   4
ATOM      4  C   UNL     1       5.076  -2.567 -22.087  1.00  0.00     0.230 C 
ATOM      5  C   UNL     1       4.978  -1.878 -23.436  1.00  0.00     0.049 C 
ENDBRANCH   3   4
ENDBRANCH   1   3
BRANCH   1   6
ATOM      6  C   UNL     1       6.866  -1.765 -19.071  1.00  0.00     0.083 A 
ATOM      7  C   UNL     1       7.562  -0.545 -18.994  1.00  0.00     0.018 A 
ATOM      8  C   UNL     1       6.265  -2.309 -17.916  1.00  0.00     0.046 A 
ATOM      9  C   UNL     1       7.702   0.113 -17.771  1.00  0.00     0.001 A 
ATOM     10  C   UNL     1       6.463  -1.656 -16.691  1.00  0.00     0.026 A 
ATOM     11  C   UNL     1       7.159  -0.447 -16.619  1.00  0.00     0.002 A 
BRANCH   8  12
ATOM     12  N   UNL     1       5.681  -3.591 -17.895  1.00  0.00    -0.398 N 
ATOM     13  H   UNL     1       5.003  -3.727 -17.153  1.00  0.00     0.156 HD
ATOM     14  H   UNL     1       5.302  -3.857 -18.812  1.00  0.00     0.156 HD
ENDBRANCH   8  12
ENDBRANCH   1   6
TORSDOF 4
ENDMDL
MODEL 2
REMARK VINA RESULT:      -6.0     12.964     14.599
REMARK SMILES CCOC(=O)c1ccccc1N
REMARK SMILES IDX 4 1 5 2 3 3 2 4 1 5 6 6 7 7 11 8 8 9 10 10 9 11 12 12
REMARK H PARENT 12 13 12 14
ROOT
ATOM      1  C   UNL     1      -2.952  -9.679 -28.023  1.00  0.00     0.340 C 
ATOM      2  O   UNL     1      -2.887  -8.655 -28.687  1.00  0.00    -0.246 OA
ENDROOT
BRANCH   1   3
ATOM      3  O   UNL     1      -4.081 -10.393 -27.773  1.00  0.00    -0.462 OA
BRANCH   3   4
ATOM      4  C   UNL     1      -5.051  -9.751 -26.933  1.00  0.00     0.230 C 
ATOM      5  C   UNL     1      -5.689 -10.764 -26.000  1.00  0.00     0.049 C 
ENDBRANCH   3   4
ENDBRANCH   1   3
BRANCH   1   6
ATOM      6  C   UNL     1      -1.781 -10.305 -27.347  1.00  0.00     0.083 A 
ATOM      7  C   UNL     1      -1.390 -11.613 -27.683  1.00  0.00     0.018 A 
ATOM      8  C   UNL     1      -1.032  -9.563 -26.408  1.00  0.00     0.046 A 
ATOM      9  C   UNL     1      -0.288 -12.203 -27.063  1.00  0.00     0.001 A 
ATOM     10  C   UNL     1       0.039 -10.196 -25.761  1.00  0.00     0.026 A 
ATOM     11  C   UNL     1       0.421 -11.497 -26.096  1.00  0.00     0.002 A 
BRANCH   8  12
ATOM     12  N   UNL     1      -1.451  -8.308 -25.923  1.00  0.00    -0.398 N 
ATOM     13  H   UNL     1      -1.670  -7.634 -26.648  1.00  0.00     0.156 HD
ATOM     14  H   UNL     1      -2.212  -8.394 -25.239  1.00  0.00     0.156 HD
ENDBRANCH   8  12
ENDBRANCH   1   6
TORSDOF 4
ENDMDL
MODEL 3
REMARK VINA RESULT:      -6.0     12.562     14.022
REMARK SMILES CCOC(=O)c1ccccc1N
REMARK SMILES IDX 4 1 5 2 3 3 2 4 1 5 6 6 7 7 11 8 8 9 10 10 9 11 12 12
REMARK H PARENT 12 13 12 14
ROOT
ATOM      1  C   UNL     1       0.250  -9.262 -27.179  1.00  0.00     0.340 C 
ATOM      2  O   UNL     1       0.880  -8.262 -27.491  1.00  0.00    -0.246 OA
ENDROOT
BRANCH   1   3
ATOM      3  O   UNL     1       0.783 -10.426 -26.724  1.00  0.00    -0.462 OA
BRANCH   3   4
ATOM      4  C   UNL     1       0.613 -10.684 -25.323  1.00  0.00     0.230 C 
ATOM      5  C   UNL     1       0.805 -12.161 -25.034  1.00  0.00     0.049 C 
ENDBRANCH   3   4
ENDBRANCH   1   3
BRANCH   1   6
ATOM      6  C   UNL     1      -1.233  -9.372 -27.275  1.00  0.00     0.083 A 
ATOM      7  C   UNL     1      -2.050  -8.355 -26.751  1.00  0.00     0.018 A 
ATOM      8  C   UNL     1      -1.814 -10.473 -27.941  1.00  0.00     0.046 A 
ATOM      9  C   UNL     1      -3.439  -8.445 -26.846  1.00  0.00     0.001 A 
ATOM     10  C   UNL     1      -3.213 -10.566 -27.978  1.00  0.00     0.026 A 
ATOM     11  C   UNL     1      -4.020  -9.554 -27.453  1.00  0.00     0.002 A 
BRANCH   8  12
ATOM     12  N   UNL     1      -1.065 -11.590 -28.359  1.00  0.00    -0.398 N 
ATOM     13  H   UNL     1      -1.577 -12.237 -28.948  1.00  0.00     0.156 HD
ATOM     14  H   UNL     1      -0.169 -11.318 -28.781  1.00  0.00     0.156 HD
ENDBRANCH   8  12
ENDBRANCH   1   6
TORSDOF 4
ENDMDL
MODEL 4
REMARK VINA RESULT:      -5.7      2.710      4.766
REMARK SMILES CCOC(=O)c1ccccc1N
REMARK SMILES IDX 4 1 5 2 3 3 2 4 1 5 6 6 7 7 11 8 8 9 10 10 9 11 12 12
REMARK H PARENT 12 13 12 14
ROOT
ATOM      1  C   UNL     1       7.570   0.339 -17.463  1.00  0.00     0.340 C 
ATOM      2  O   UNL     1       6.849   1.216 -17.009  1.00  0.00    -0.246 OA
ENDROOT
BRANCH   1   3
ATOM      3  O   UNL     1       8.928   0.348 -17.462  1.00  0.00    -0.462 OA
BRANCH   3   4
ATOM      4  C   UNL     1       9.550   0.459 -16.174  1.00  0.00     0.230 C 
ATOM      5  C   UNL     1       9.642  -0.905 -15.516  1.00  0.00     0.049 C 
ENDBRANCH   3   4
ENDBRANCH   1   3
BRANCH   1   6
ATOM      6  C   UNL     1       7.059  -0.894 -18.127  1.00  0.00     0.083 A 
ATOM      7  C   UNL     1       7.299  -1.108 -19.496  1.00  0.00     0.018 A 
ATOM      8  C   UNL     1       6.383  -1.873 -17.366  1.00  0.00     0.046 A 
ATOM      9  C   UNL     1       6.834  -2.264 -20.122  1.00  0.00     0.001 A 
ATOM     10  C   UNL     1       5.881  -3.002 -18.029  1.00  0.00     0.026 A 
ATOM     11  C   UNL     1       6.118  -3.207 -19.391  1.00  0.00     0.002 A 
BRANCH   8  12
ATOM     12  N   UNL     1       5.987  -1.658 -16.032  1.00  0.00    -0.398 N 
ATOM     13  H   UNL     1       5.135  -2.141 -15.769  1.00  0.00     0.156 HD
ATOM     14  H   UNL     1       6.750  -1.841 -15.369  1.00  0.00     0.156 HD
ENDBRANCH   8  12
ENDBRANCH   1   6
TORSDOF 4
ENDMDL
MODEL 5
REMARK VINA RESULT:      -5.6     12.995     14.202
REMARK SMILES CCOC(=O)c1ccccc1N
REMARK SMILES IDX 4 1 5 2 3 3 2 4 1 5 6 6 7 7 11 8 8 9 10 10 9 11 12 12
REMARK H PARENT 12 13 12 14
ROOT
ATOM      1  C   UNL     1       0.045 -10.888 -26.220  1.00  0.00     0.340 C 
ATOM      2  O   UNL     1       0.842 -10.264 -25.536  1.00  0.00    -0.246 OA
ENDROOT
BRANCH   1   3
ATOM      3  O   UNL     1       0.118 -12.212 -26.517  1.00  0.00    -0.462 OA
BRANCH   3   4
ATOM      4  C   UNL     1       1.095 -12.962 -25.782  1.00  0.00     0.230 C 
ATOM      5  C   UNL     1       0.525 -13.398 -24.445  1.00  0.00     0.049 C 
ENDBRANCH   3   4
ENDBRANCH   1   3
BRANCH   1   6
ATOM      6  C   UNL     1      -1.146 -10.275 -26.873  1.00  0.00     0.083 A 
ATOM      7  C   UNL     1      -2.352 -10.994 -26.955  1.00  0.00     0.018 A 
ATOM      8  C   UNL     1      -1.078  -8.952 -27.359  1.00  0.00     0.046 A 
ATOM      9  C   UNL     1      -3.476 -10.423 -27.555  1.00  0.00     0.001 A 
ATOM     10  C   UNL     1      -2.204  -8.420 -28.004  1.00  0.00     0.026 A 
ATOM     11  C   UNL     1      -3.399  -9.140 -28.086  1.00  0.00     0.002 A 
BRANCH   8  12
ATOM     12  N   UNL     1       0.130  -8.232 -27.438  1.00  0.00    -0.398 N 
ATOM     13  H   UNL     1       0.482  -7.912 -26.542  1.00  0.00     0.156 HD
ATOM     14  H   UNL     1       0.847  -8.739 -27.971  1.00  0.00     0.156 HD
ENDBRANCH   8  12
ENDBRANCH   1   6
TORSDOF 4
ENDMDL
MODEL 6
REMARK VINA RESULT:      -5.5      3.079      4.066
REMARK SMILES CCOC(=O)c1ccccc1N
REMARK SMILES IDX 4 1 5 2 3 3 2 4 1 5 6 6 7 7 11 8 8 9 10 10 9 11 12 12
REMARK H PARENT 12 13 12 14
ROOT
ATOM      1  C   UNL     1       6.817  -0.962 -16.884  1.00  0.00     0.340 C 
ATOM      2  O   UNL     1       6.109  -1.728 -16.246  1.00  0.00    -0.246 OA
ENDROOT
BRANCH   1   3
ATOM      3  O   UNL     1       6.595  -0.551 -18.159  1.00  0.00    -0.462 OA
BRANCH   3   4
ATOM      4  C   UNL     1       7.274  -1.295 -19.181  1.00  0.00     0.230 C 
ATOM      5  C   UNL     1       6.292  -1.733 -20.251  1.00  0.00     0.049 C 
ENDBRANCH   3   4
ENDBRANCH   1   3
BRANCH   1   6
ATOM      6  C   UNL     1       8.078  -0.366 -16.359  1.00  0.00     0.083 A 
ATOM      7  C   UNL     1       9.096  -1.198 -15.860  1.00  0.00     0.018 A 
ATOM      8  C   UNL     1       8.270   1.031 -16.414  1.00  0.00     0.046 A 
ATOM      9  C   UNL     1      10.284  -0.649 -15.377  1.00  0.00     0.001 A 
ATOM     10  C   UNL     1       9.451   1.563 -15.874  1.00  0.00     0.026 A 
ATOM     11  C   UNL     1      10.458   0.731 -15.377  1.00  0.00     0.002 A 
BRANCH   8  12
ATOM     12  N   UNL     1       7.242   1.927 -16.765  1.00  0.00    -0.398 N 
ATOM     13  H   UNL     1       6.335   1.691 -16.376  1.00  0.00     0.156 HD
ATOM     14  H   UNL     1       7.498   2.902 -16.573  1.00  0.00     0.156 HD
ENDBRANCH   8  12
ENDBRANCH   1   6
TORSDOF 4
ENDMDL
MODEL 7
REMARK VINA RESULT:      -5.4     13.020     14.263
REMARK SMILES CCOC(=O)c1ccccc1N
REMARK SMILES IDX 4 1 5 2 3 3 2 4 1 5 6 6 7 7 11 8 8 9 10 10 9 11 12 12
REMARK H PARENT 12 13 12 14
ROOT
ATOM      1  C   UNL     1      -5.038  -1.960 -28.018  1.00  0.00     0.340 C 
ATOM      2  O   UNL     1      -5.281  -2.552 -26.977  1.00  0.00    -0.246 OA
ENDROOT
BRANCH   1   3
ATOM      3  O   UNL     1      -5.691  -2.126 -29.198  1.00  0.00    -0.462 OA
BRANCH   3   4
ATOM      4  C   UNL     1      -6.773  -1.217 -29.445  1.00  0.00     0.230 C 
ATOM      5  C   UNL     1      -6.617  -0.574 -30.811  1.00  0.00     0.049 C 
ENDBRANCH   3   4
ENDBRANCH   1   3
BRANCH   1   6
ATOM      6  C   UNL     1      -3.945  -0.958 -28.168  1.00  0.00     0.083 A 
ATOM      7  C   UNL     1      -3.059  -1.039 -29.257  1.00  0.00     0.018 A 
ATOM      8  C   UNL     1      -3.834   0.104 -27.245  1.00  0.00     0.046 A 
ATOM      9  C   UNL     1      -2.039  -0.099 -29.410  1.00  0.00     0.001 A 
ATOM     10  C   UNL     1      -2.770   1.006 -27.391  1.00  0.00     0.026 A 
ATOM     11  C   UNL     1      -1.890   0.918 -28.473  1.00  0.00     0.002 A 
BRANCH   8  12
ATOM     12  N   UNL     1      -4.593   0.163 -26.059  1.00  0.00    -0.398 N 
ATOM     13  H   UNL     1      -5.121  -0.680 -25.861  1.00  0.00     0.156 HD
ATOM     14  H   UNL     1      -4.028   0.458 -25.254  1.00  0.00     0.156 HD
ENDBRANCH   8  12
ENDBRANCH   1   6
TORSDOF 4
ENDMDL
MODEL 8
REMARK VINA RESULT:      -5.4     13.633     15.492
REMARK SMILES CCOC(=O)c1ccccc1N
REMARK SMILES IDX 4 1 5 2 3 3 2 4 1 5 6 6 7 7 11 8 8 9 10 10 9 11 12 12
REMARK H PARENT 12 13 12 14
ROOT
ATOM      1  C   UNL     1      -5.222  -0.265 -30.742  1.00  0.00     0.340 C 
ATOM      2  O   UNL     1      -5.893  -1.286 -30.701  1.00  0.00    -0.246 OA
ENDROOT
BRANCH   1   3
ATOM      3  O   UNL     1      -5.314   0.709 -31.684  1.00  0.00    -0.462 OA
BRANCH   3   4
ATOM      4  C   UNL     1      -6.639   1.184 -31.962  1.00  0.00     0.230 C 
ATOM      5  C   UNL     1      -7.129   2.066 -30.829  1.00  0.00     0.049 C 
ENDBRANCH   3   4
ENDBRANCH   1   3
BRANCH   1   6
ATOM      6  C   UNL     1      -4.156   0.066 -29.755  1.00  0.00     0.083 A 
ATOM      7  C   UNL     1      -4.493   0.334 -28.416  1.00  0.00     0.018 A 
ATOM      8  C   UNL     1      -2.802   0.056 -30.154  1.00  0.00     0.046 A 
ATOM      9  C   UNL     1      -3.500   0.635 -27.484  1.00  0.00     0.001 A 
ATOM     10  C   UNL     1      -1.827   0.412 -29.211  1.00  0.00     0.026 A 
ATOM     11  C   UNL     1      -2.168   0.681 -27.883  1.00  0.00     0.002 A 
BRANCH   8  12
ATOM     12  N   UNL     1      -2.407  -0.062 -31.501  1.00  0.00    -0.398 N 
ATOM     13  H   UNL     1      -1.744   0.643 -31.803  1.00  0.00     0.156 HD
ATOM     14  H   UNL     1      -2.086  -1.011 -31.727  1.00  0.00     0.156 HD
ENDBRANCH   8  12
ENDBRANCH   1   6
TORSDOF 4
ENDMDL
MODEL 9
REMARK VINA RESULT:      -5.3     13.791     15.474
REMARK SMILES CCOC(=O)c1ccccc1N
REMARK SMILES IDX 4 1 5 2 3 3 2 4 1 5 6 6 7 7 11 8 8 9 10 10 9 11 12 12
REMARK H PARENT 12 13 12 14
ROOT
ATOM      1  C   UNL     1      -5.315   0.775 -30.939  1.00  0.00     0.340 C 
ATOM      2  O   UNL     1      -5.896   1.780 -31.322  1.00  0.00    -0.246 OA
ENDROOT
BRANCH   1   3
ATOM      3  O   UNL     1      -5.620  -0.502 -31.290  1.00  0.00    -0.462 OA
BRANCH   3   4
ATOM      4  C   UNL     1      -6.727  -1.093 -30.595  1.00  0.00     0.230 C 
ATOM      5  C   UNL     1      -6.244  -2.221 -29.703  1.00  0.00     0.049 C 
ENDBRANCH   3   4
ENDBRANCH   1   3
BRANCH   1   6
ATOM      6  C   UNL     1      -4.172   0.790 -29.983  1.00  0.00     0.083 A 
ATOM      7  C   UNL     1      -4.302   1.435 -28.739  1.00  0.00     0.018 A 
ATOM      8  C   UNL     1      -2.978   0.110 -30.303  1.00  0.00     0.046 A 
ATOM      9  C   UNL     1      -3.241   1.446 -27.834  1.00  0.00     0.001 A 
ATOM     10  C   UNL     1      -1.908   0.178 -29.399  1.00  0.00     0.026 A 
ATOM     11  C   UNL     1      -2.042   0.824 -28.167  1.00  0.00     0.002 A 
BRANCH   8  12
ATOM     12  N   UNL     1      -2.731  -0.431 -31.581  1.00  0.00    -0.398 N 
ATOM     13  H   UNL     1      -3.222  -1.298 -31.767  1.00  0.00     0.156 HD
ATOM     14  H   UNL     1      -2.879   0.260 -32.326  1.00  0.00     0.156 HD
ENDBRANCH   8  12
ENDBRANCH   1   6
TORSDOF 4
ENDMDL
MODEL 10
REMARK VINA RESULT:      -5.3     15.750     17.689
REMARK SMILES CCOC(=O)c1ccccc1N
REMARK SMILES IDX 4 1 5 2 3 3 2 4 1 5 6 6 7 7 11 8 8 9 10 10 9 11 12 12
REMARK H PARENT 12 13 12 14
ROOT
ATOM      1  C   UNL     1      -6.657   0.842 -31.831  1.00  0.00     0.340 C 
ATOM      2  O   UNL     1      -6.737   2.058 -31.735  1.00  0.00    -0.246 OA
ENDROOT
BRANCH   1   3
ATOM      3  O   UNL     1      -7.517   0.040 -32.513  1.00  0.00    -0.462 OA
BRANCH   3   4
ATOM      4  C   UNL     1      -8.085   0.605 -33.703  1.00  0.00     0.230 C 
ATOM      5  C   UNL     1      -9.600   0.571 -33.628  1.00  0.00     0.049 C 
ENDBRANCH   3   4
ENDBRANCH   1   3
BRANCH   1   6
ATOM      6  C   UNL     1      -5.595   0.026 -31.179  1.00  0.00     0.083 A 
ATOM      7  C   UNL     1      -5.945  -1.034 -30.322  1.00  0.00     0.018 A 
ATOM      8  C   UNL     1      -4.236   0.282 -31.465  1.00  0.00     0.046 A 
ATOM      9  C   UNL     1      -4.957  -1.809 -29.716  1.00  0.00     0.001 A 
ATOM     10  C   UNL     1      -3.261  -0.477 -30.803  1.00  0.00     0.026 A 
ATOM     11  C   UNL     1      -3.615  -1.526 -29.950  1.00  0.00     0.002 A 
BRANCH   8  12
ATOM     12  N   UNL     1      -3.814   1.411 -32.195  1.00  0.00    -0.398 N 
ATOM     13  H   UNL     1      -2.811   1.564 -32.179  1.00  0.00     0.156 HD
ATOM     14  H   UNL     1      -4.186   1.412 -33.152  1.00  0.00     0.156 HD
ENDBRANCH   8  12
ENDBRANCH   1   6
TORSDOF 4
ENDMDL
