MODEL 1
REMARK VINA RESULT:      -5.7      0.000      0.000
REMARK SMILES Cc1ccc(C)cc1
REMARK SMILES IDX 1 1 2 2 3 3 4 4 5 5 7 6 8 7 6 8
REMARK H PARENT
ROOT
ATOM      1  C   UNL     1       6.163  -1.771 -20.318  1.00  0.00     0.044 C 
ATOM      2  C   UNL     1       6.825  -1.362 -19.036  1.00  0.00    -0.051 A 
ATOM      3  C   UNL     1       6.226  -1.624 -17.799  1.00  0.00     0.003 A 
ATOM      4  C   UNL     1       6.852  -1.236 -16.611  1.00  0.00     0.003 A 
ATOM      5  C   UNL     1       8.086  -0.577 -16.642  1.00  0.00    -0.051 A 
ATOM      6  C   UNL     1       8.685  -0.315 -17.879  1.00  0.00     0.003 A 
ATOM      7  C   UNL     1       8.059  -0.703 -19.066  1.00  0.00     0.003 A 
ATOM      8  C   UNL     1       8.767  -0.155 -15.375  1.00  0.00     0.044 C 
ENDROOT
TORSDOF 0
ENDMDL
MODEL 2
REMARK VINA RESULT:      -5.7      0.022      3.379
REMARK SMILES Cc1ccc(C)cc1
REMARK SMILES IDX 1 1 2 2 3 3 4 4 5 5 7 6 8 7 6 8
REMARK H PARENT
ROOT
ATOM      1  C   UNL     1       8.756  -0.177 -15.374  1.00  0.00     0.044 C 
ATOM      2  C   UNL     1       8.075  -0.591 -16.645  1.00  0.00    -0.051 A 
ATOM      3  C   UNL     1       6.850  -1.266 -16.620  1.00  0.00     0.003 A 
ATOM      4  C   UNL     1       6.226  -1.648 -17.811  1.00  0.00     0.003 A 
ATOM      5  C   UNL     1       6.819  -1.364 -19.046  1.00  0.00    -0.051 A 
ATOM      6  C   UNL     1       8.044  -0.689 -19.071  1.00  0.00     0.003 A 
ATOM      7  C   UNL     1       8.668  -0.307 -17.880  1.00  0.00     0.003 A 
ATOM      8  C   UNL     1       6.160  -1.769 -20.330  1.00  0.00     0.044 C 
ENDROOT
TORSDOF 0
ENDMDL
MODEL 3
REMARK VINA RESULT:      -5.4     14.436     15.922
REMARK SMILES Cc1ccc(C)cc1
REMARK SMILES IDX 1 1 2 2 3 3 4 4 5 5 7 6 8 7 6 8
REMARK H PARENT
ROOT
ATOM      1  C   UNL     1       0.865 -12.308 -25.677  1.00  0.00     0.044 C 
ATOM      2  C   UNL     1      -0.110 -11.345 -26.284  1.00  0.00    -0.051 A 
ATOM      3  C   UNL     1      -0.242 -10.043 -25.789  1.00  0.00     0.003 A 
ATOM      4  C   UNL     1      -1.157  -9.155 -26.363  1.00  0.00     0.003 A 
ATOM      5  C   UNL     1      -1.954  -9.555 -27.440  1.00  0.00    -0.051 A 
ATOM      6  C   UNL     1      -1.822 -10.857 -27.935  1.00  0.00     0.003 A 
ATOM      7  C   UNL     1      -0.908 -11.744 -27.362  1.00  0.00     0.003 A 
ATOM      8  C   UNL     1      -2.939  -8.612 -28.063  1.00  0.00     0.044 C 
ENDROOT
TORSDOF 0
ENDMDL
MODEL 4
REMARK VINA RESULT:      -5.4     14.434     15.750
REMARK SMILES Cc1ccc(C)cc1
REMARK SMILES IDX 1 1 2 2 3 3 4 4 5 5 7 6 8 7 6 8
REMARK H PARENT
ROOT
ATOM      1  C   UNL     1      -2.908  -8.589 -28.072  1.00  0.00     0.044 C 
ATOM      2  C   UNL     1      -1.937  -9.542 -27.443  1.00  0.00    -0.051 A 
ATOM      3  C   UNL     1      -1.134  -9.149 -26.367  1.00  0.00     0.003 A 
ATOM      4  C   UNL     1      -0.231 -10.047 -25.790  1.00  0.00     0.003 A 
ATOM      5  C   UNL     1      -0.115 -11.351 -26.282  1.00  0.00    -0.051 A 
ATOM      6  C   UNL     1      -0.917 -11.744 -27.359  1.00  0.00     0.003 A 
ATOM      7  C   UNL     1      -1.820 -10.847 -27.935  1.00  0.00     0.003 A 
ATOM      8  C   UNL     1       0.851 -12.322 -25.673  1.00  0.00     0.044 C 
ENDROOT
TORSDOF 0
ENDMDL
MODEL 5
REMARK VINA RESULT:      -5.0     14.494     15.173
REMARK SMILES Cc1ccc(C)cc1
REMARK SMILES IDX 1 1 2 2 3 3 4 4 5 5 7 6 8 7 6 8
REMARK H PARENT
ROOT
ATOM      1  C   UNL     1      -5.409  -1.332 -25.655  1.00  0.00     0.044 C 
ATOM      2  C   UNL     1      -4.479  -0.963 -26.771  1.00  0.00    -0.051 A 
ATOM      3  C   UNL     1      -4.283  -1.819 -27.861  1.00  0.00     0.003 A 
ATOM      4  C   UNL     1      -3.412  -1.464 -28.895  1.00  0.00     0.003 A 
ATOM      5  C   UNL     1      -2.721  -0.248 -28.855  1.00  0.00    -0.051 A 
ATOM      6  C   UNL     1      -2.916   0.608 -27.765  1.00  0.00     0.003 A 
ATOM      7  C   UNL     1      -3.787   0.253 -26.732  1.00  0.00     0.003 A 
ATOM      8  C   UNL     1      -1.783   0.143 -29.957  1.00  0.00     0.044 C 
ENDROOT
TORSDOF 0
ENDMDL
MODEL 6
REMARK VINA RESULT:      -5.0     14.477     15.082
REMARK SMILES Cc1ccc(C)cc1
REMARK SMILES IDX 1 1 2 2 3 3 4 4 5 5 7 6 8 7 6 8
REMARK H PARENT
ROOT
ATOM      1  C   UNL     1      -1.836   0.143 -29.914  1.00  0.00     0.044 C 
ATOM      2  C   UNL     1      -2.773  -0.256 -28.814  1.00  0.00    -0.051 A 
ATOM      3  C   UNL     1      -3.487  -1.457 -28.875  1.00  0.00     0.003 A 
ATOM      4  C   UNL     1      -4.359  -1.818 -27.844  1.00  0.00     0.003 A 
ATOM      5  C   UNL     1      -4.532  -0.982 -26.736  1.00  0.00    -0.051 A 
ATOM      6  C   UNL     1      -3.818   0.220 -26.674  1.00  0.00     0.003 A 
ATOM      7  C   UNL     1      -2.946   0.580 -27.705  1.00  0.00     0.003 A 
ATOM      8  C   UNL     1      -5.465  -1.357 -25.624  1.00  0.00     0.044 C 
ENDROOT
TORSDOF 0
ENDMDL
MODEL 7
REMARK VINA RESULT:      -5.0     14.505     15.222
REMARK SMILES Cc1ccc(C)cc1
REMARK SMILES IDX 1 1 2 2 3 3 4 4 5 5 7 6 8 7 6 8
REMARK H PARENT
ROOT
ATOM      1  C   UNL     1      -5.430  -1.351 -25.637  1.00  0.00     0.044 C 
ATOM      2  C   UNL     1      -4.505  -0.955 -26.748  1.00  0.00    -0.051 A 
ATOM      3  C   UNL     1      -3.811   0.259 -26.711  1.00  0.00     0.003 A 
ATOM      4  C   UNL     1      -2.952   0.618 -27.754  1.00  0.00     0.003 A 
ATOM      5  C   UNL     1      -2.776  -0.231 -28.852  1.00  0.00    -0.051 A 
ATOM      6  C   UNL     1      -3.470  -1.445 -28.889  1.00  0.00     0.003 A 
ATOM      7  C   UNL     1      -4.328  -1.804 -27.847  1.00  0.00     0.003 A 
ATOM      8  C   UNL     1      -1.859   0.143 -29.978  1.00  0.00     0.044 C 
ENDROOT
TORSDOF 0
ENDMDL
MODEL 8
REMARK VINA RESULT:      -4.9      6.652      8.622
REMARK SMILES Cc1ccc(C)cc1
REMARK SMILES IDX 1 1 2 2 3 3 4 4 5 5 7 6 8 7 6 8
REMARK H PARENT
ROOT
ATOM      1  C   UNL     1       4.084  -2.466 -23.070  1.00  0.00     0.044 C 
ATOM      2  C   UNL     1       4.470  -1.736 -24.321  1.00  0.00    -0.051 A 
ATOM      3  C   UNL     1       3.702  -1.844 -25.485  1.00  0.00     0.003 A 
ATOM      4  C   UNL     1       4.074  -1.160 -26.646  1.00  0.00     0.003 A 
ATOM      5  C   UNL     1       5.221  -0.359 -26.662  1.00  0.00    -0.051 A 
ATOM      6  C   UNL     1       5.989  -0.251 -25.497  1.00  0.00     0.003 A 
ATOM      7  C   UNL     1       5.618  -0.935 -24.337  1.00  0.00     0.003 A 
ATOM      8  C   UNL     1       5.631   0.379 -27.901  1.00  0.00     0.044 C 
ENDROOT
TORSDOF 0
ENDMDL
MODEL 9
REMARK VINA RESULT:      -4.9     14.232     15.015
REMARK SMILES Cc1ccc(C)cc1
REMARK SMILES IDX 1 1 2 2 3 3 4 4 5 5 7 6 8 7 6 8
REMARK H PARENT
ROOT
ATOM      1  C   UNL     1      -3.536  -1.785 -29.834  1.00  0.00     0.044 C 
ATOM      2  C   UNL     1      -3.898  -1.300 -28.463  1.00  0.00    -0.051 A 
ATOM      3  C   UNL     1      -4.733  -2.052 -27.629  1.00  0.00     0.003 A 
ATOM      4  C   UNL     1      -5.064  -1.588 -26.352  1.00  0.00     0.003 A 
ATOM      5  C   UNL     1      -4.568  -0.365 -25.890  1.00  0.00    -0.051 A 
ATOM      6  C   UNL     1      -3.732   0.387 -26.724  1.00  0.00     0.003 A 
ATOM      7  C   UNL     1      -3.401  -0.076 -27.999  1.00  0.00     0.003 A 
ATOM      8  C   UNL     1      -4.917   0.144 -24.524  1.00  0.00     0.044 C 
ENDROOT
TORSDOF 0
ENDMDL
MODEL 10
REMARK VINA RESULT:      -4.8      3.744      5.387
REMARK SMILES Cc1ccc(C)cc1
REMARK SMILES IDX 1 1 2 2 3 3 4 4 5 5 7 6 8 7 6 8
REMARK H PARENT
ROOT
ATOM      1  C   UNL     1       4.077  -1.668 -24.918  1.00  0.00     0.044 C 
ATOM      2  C   UNL     1       4.609  -2.091 -23.581  1.00  0.00    -0.051 A 
ATOM      3  C   UNL     1       4.061  -3.183 -22.899  1.00  0.00     0.003 A 
ATOM      4  C   UNL     1       4.565  -3.566 -21.653  1.00  0.00     0.003 A 
ATOM      5  C   UNL     1       5.623  -2.863 -21.068  1.00  0.00    -0.051 A 
ATOM      6  C   UNL     1       6.171  -1.771 -21.750  1.00  0.00     0.003 A 
ATOM      7  C   UNL     1       5.668  -1.388 -22.996  1.00  0.00     0.003 A 
ATOM      8  C   UNL     1       6.171  -3.264 -19.732  1.00  0.00     0.044 C 
ENDROOT
TORSDOF 0
ENDMDL
