MODEL 1
REMARK VINA RESULT:      -6.4      0.000      0.000
REMARK SMILES CCC[C@@H](C)C(=O)O
REMARK SMILES IDX 4 1 5 2 3 3 2 4 1 5 6 6 7 7 8 8
REMARK H PARENT 8 9
ROOT
ATOM      1  C   UNL     1       4.526  -1.473 -24.750  1.00  0.00     0.096 C 
ATOM      2  C   UNL     1       5.145  -1.913 -23.423  1.00  0.00     0.020 C 
ENDROOT
BRANCH   1   3
ATOM      3  C   UNL     1       5.255  -0.283 -25.393  1.00  0.00     0.015 C 
BRANCH   3   4
ATOM      4  C   UNL     1       5.318  -0.358 -26.920  1.00  0.00    -0.003 C 
ATOM      5  C   UNL     1       6.532   0.379 -27.465  1.00  0.00     0.004 C 
ENDBRANCH   3   4
ENDBRANCH   1   3
BRANCH   1   6
ATOM      6  C   UNL     1       3.072  -1.091 -24.525  1.00  0.00     0.306 C 
ATOM      7  O   UNL     1       2.287  -1.717 -23.829  1.00  0.00    -0.252 OA
BRANCH   6   8
ATOM      8  O   UNL     1       2.718   0.055 -25.152  1.00  0.00    -0.481 OA
ATOM      9  H   UNL     1       2.205   0.672 -24.599  1.00  0.00     0.296 HD
ENDBRANCH   6   8
ENDBRANCH   1   6
TORSDOF 4
ENDMDL
MODEL 2
REMARK VINA RESULT:      -5.7      2.172      3.790
REMARK SMILES CCC[C@@H](C)C(=O)O
REMARK SMILES IDX 4 1 5 2 3 3 2 4 1 5 6 6 7 7 8 8
REMARK H PARENT 8 9
ROOT
ATOM      1  C   UNL     1       4.429  -1.288 -25.418  1.00  0.00     0.096 C 
ATOM      2  C   UNL     1       2.985  -0.838 -25.196  1.00  0.00     0.020 C 
ENDROOT
BRANCH   1   3
ATOM      3  C   UNL     1       5.223  -1.441 -24.112  1.00  0.00     0.015 C 
BRANCH   3   4
ATOM      4  C   UNL     1       4.543  -2.349 -23.085  1.00  0.00    -0.003 C 
ATOM      5  C   UNL     1       5.377  -2.482 -21.820  1.00  0.00     0.004 C 
ENDBRANCH   3   4
ENDBRANCH   1   3
BRANCH   1   6
ATOM      6  C   UNL     1       5.140  -0.280 -26.307  1.00  0.00     0.306 C 
ATOM      7  O   UNL     1       5.130  -0.299 -27.528  1.00  0.00    -0.252 OA
BRANCH   6   8
ATOM      8  O   UNL     1       5.776   0.690 -25.610  1.00  0.00    -0.481 OA
ATOM      9  H   UNL     1       5.757   1.567 -26.035  1.00  0.00     0.296 HD
ENDBRANCH   6   8
ENDBRANCH   1   6
TORSDOF 4
ENDMDL
MODEL 3
REMARK VINA RESULT:      -5.5      5.001      6.519
REMARK SMILES CCC[C@@H](C)C(=O)O
REMARK SMILES IDX 4 1 5 2 3 3 2 4 1 5 6 6 7 7 8 8
REMARK H PARENT 8 9
ROOT
ATOM      1  C   UNL     1       7.056  -1.938 -19.414  1.00  0.00     0.096 C 
ATOM      2  C   UNL     1       7.894  -0.748 -18.947  1.00  0.00     0.020 C 
ENDROOT
BRANCH   1   3
ATOM      3  C   UNL     1       6.004  -1.561 -20.468  1.00  0.00     0.015 C 
BRANCH   3   4
ATOM      4  C   UNL     1       5.751  -2.662 -21.500  1.00  0.00    -0.003 C 
ATOM      5  C   UNL     1       4.989  -2.132 -22.705  1.00  0.00     0.004 C 
ENDBRANCH   3   4
ENDBRANCH   1   3
BRANCH   1   6
ATOM      6  C   UNL     1       6.350  -2.556 -18.218  1.00  0.00     0.306 C 
ATOM      7  O   UNL     1       5.959  -1.934 -17.242  1.00  0.00    -0.252 OA
BRANCH   6   8
ATOM      8  O   UNL     1       6.156  -3.890 -18.343  1.00  0.00    -0.481 OA
ATOM      9  H   UNL     1       5.536  -4.267 -17.692  1.00  0.00     0.296 HD
ENDBRANCH   6   8
ENDBRANCH   1   6
TORSDOF 4
ENDMDL
MODEL 4
REMARK VINA RESULT:      -5.2     10.148     11.301
REMARK SMILES CCC[C@@H](C)C(=O)O
REMARK SMILES IDX 4 1 5 2 3 3 2 4 1 5 6 6 7 7 8 8
REMARK H PARENT 8 9
ROOT
ATOM      1  C   UNL     1      -1.282 -10.163 -26.873  1.00  0.00     0.096 C 
ATOM      2  C   UNL     1      -1.345 -11.349 -27.835  1.00  0.00     0.020 C 
ENDROOT
BRANCH   1   3
ATOM      3  C   UNL     1      -1.944  -8.895 -27.430  1.00  0.00     0.015 C 
BRANCH   3   4
ATOM      4  C   UNL     1      -3.269  -9.162 -28.148  1.00  0.00    -0.003 C 
ATOM      5  C   UNL     1      -4.415  -9.325 -27.161  1.00  0.00     0.004 C 
ENDBRANCH   3   4
ENDBRANCH   1   3
BRANCH   1   6
ATOM      6  C   UNL     1       0.171  -9.854 -26.550  1.00  0.00     0.306 C 
ATOM      7  O   UNL     1       0.782 -10.298 -25.590  1.00  0.00    -0.252 OA
BRANCH   6   8
ATOM      8  O   UNL     1       0.760  -9.046 -27.462  1.00  0.00    -0.481 OA
ATOM      9  H   UNL     1       1.498  -9.460 -27.947  1.00  0.00     0.296 HD
ENDBRANCH   6   8
ENDBRANCH   1   6
TORSDOF 4
ENDMDL
MODEL 5
REMARK VINA RESULT:      -5.2     10.088     11.160
REMARK SMILES CCC[C@@H](C)C(=O)O
REMARK SMILES IDX 4 1 5 2 3 3 2 4 1 5 6 6 7 7 8 8
REMARK H PARENT 8 9
ROOT
ATOM      1  C   UNL     1      -1.166  -9.089 -26.810  1.00  0.00     0.096 C 
ATOM      2  C   UNL     1       0.145  -8.464 -27.286  1.00  0.00     0.020 C 
ENDROOT
BRANCH   1   3
ATOM      3  C   UNL     1      -0.960 -10.268 -25.847  1.00  0.00     0.015 C 
BRANCH   3   4
ATOM      4  C   UNL     1       0.512 -10.594 -25.586  1.00  0.00    -0.003 C 
ATOM      5  C   UNL     1       0.735 -12.092 -25.446  1.00  0.00     0.004 C 
ENDBRANCH   3   4
ENDBRANCH   1   3
BRANCH   1   6
ATOM      6  C   UNL     1      -1.957  -9.575 -28.014  1.00  0.00     0.306 C 
ATOM      7  O   UNL     1      -2.834  -8.936 -28.575  1.00  0.00    -0.252 OA
BRANCH   6   8
ATOM      8  O   UNL     1      -1.575 -10.799 -28.446  1.00  0.00    -0.481 OA
ATOM      9  H   UNL     1      -1.723 -11.515 -27.801  1.00  0.00     0.296 HD
ENDBRANCH   6   8
ENDBRANCH   1   6
TORSDOF 4
ENDMDL
MODEL 6
REMARK VINA RESULT:      -5.1     10.491     11.670
REMARK SMILES CCC[C@@H](C)C(=O)O
REMARK SMILES IDX 4 1 5 2 3 3 2 4 1 5 6 6 7 7 8 8
REMARK H PARENT 8 9
ROOT
ATOM      1  C   UNL     1      -0.733  -9.923 -27.179  1.00  0.00     0.096 C 
ATOM      2  C   UNL     1      -0.980  -8.737 -26.248  1.00  0.00     0.020 C 
ENDROOT
BRANCH   1   3
ATOM      3  C   UNL     1      -2.017 -10.464 -27.825  1.00  0.00     0.015 C 
BRANCH   3   4
ATOM      4  C   UNL     1      -3.065  -9.383 -28.100  1.00  0.00    -0.003 C 
ATOM      5  C   UNL     1      -4.382  -9.694 -27.406  1.00  0.00     0.004 C 
ENDBRANCH   3   4
ENDBRANCH   1   3
BRANCH   1   6
ATOM      6  C   UNL     1      -0.068 -11.046 -26.399  1.00  0.00     0.306 C 
ATOM      7  O   UNL     1       0.125 -12.173 -26.828  1.00  0.00    -0.252 OA
BRANCH   6   8
ATOM      8  O   UNL     1       0.332 -10.671 -25.161  1.00  0.00    -0.481 OA
ATOM      9  H   UNL     1      -0.323 -10.842 -24.460  1.00  0.00     0.296 HD
ENDBRANCH   6   8
ENDBRANCH   1   6
TORSDOF 4
ENDMDL
MODEL 7
REMARK VINA RESULT:      -5.1      6.296      7.694
REMARK SMILES CCC[C@@H](C)C(=O)O
REMARK SMILES IDX 4 1 5 2 3 3 2 4 1 5 6 6 7 7 8 8
REMARK H PARENT 8 9
ROOT
ATOM      1  C   UNL     1       6.480  -0.867 -18.117  1.00  0.00     0.096 C 
ATOM      2  C   UNL     1       6.153  -1.982 -17.124  1.00  0.00     0.020 C 
ENDROOT
BRANCH   1   3
ATOM      3  C   UNL     1       7.003  -1.389 -19.463  1.00  0.00     0.015 C 
BRANCH   3   4
ATOM      4  C   UNL     1       6.330  -2.686 -19.919  1.00  0.00    -0.003 C 
ATOM      5  C   UNL     1       5.766  -2.556 -21.326  1.00  0.00     0.004 C 
ENDBRANCH   3   4
ENDBRANCH   1   3
BRANCH   1   6
ATOM      6  C   UNL     1       7.526   0.055 -17.511  1.00  0.00     0.306 C 
ATOM      7  O   UNL     1       8.716   0.034 -17.786  1.00  0.00    -0.252 OA
BRANCH   6   8
ATOM      8  O   UNL     1       7.007   0.950 -16.638  1.00  0.00    -0.481 OA
ATOM      9  H   UNL     1       6.394   0.564 -15.986  1.00  0.00     0.296 HD
ENDBRANCH   6   8
ENDBRANCH   1   6
TORSDOF 4
ENDMDL
MODEL 8
REMARK VINA RESULT:      -4.9     10.559     11.586
REMARK SMILES CCC[C@@H](C)C(=O)O
REMARK SMILES IDX 4 1 5 2 3 3 2 4 1 5 6 6 7 7 8 8
REMARK H PARENT 8 9
ROOT
ATOM      1  C   UNL     1      -0.953 -10.176 -26.362  1.00  0.00     0.096 C 
ATOM      2  C   UNL     1      -1.378  -8.708 -26.398  1.00  0.00     0.020 C 
ENDROOT
BRANCH   1   3
ATOM      3  C   UNL     1       0.548 -10.365 -26.100  1.00  0.00     0.015 C 
BRANCH   3   4
ATOM      4  C   UNL     1       0.850 -11.268 -24.902  1.00  0.00    -0.003 C 
ATOM      5  C   UNL     1       0.900 -12.733 -25.307  1.00  0.00     0.004 C 
ENDBRANCH   3   4
ENDBRANCH   1   3
BRANCH   1   6
ATOM      6  C   UNL     1      -1.304 -10.833 -27.687  1.00  0.00     0.306 C 
ATOM      7  O   UNL     1      -1.119 -12.011 -27.951  1.00  0.00    -0.252 OA
BRANCH   6   8
ATOM      8  O   UNL     1      -1.887  -9.985 -28.567  1.00  0.00    -0.481 OA
ATOM      9  H   UNL     1      -1.872  -9.050 -28.290  1.00  0.00     0.296 HD
ENDBRANCH   6   8
ENDBRANCH   1   6
TORSDOF 4
ENDMDL
MODEL 9
REMARK VINA RESULT:      -4.9      6.482      8.098
REMARK SMILES CCC[C@@H](C)C(=O)O
REMARK SMILES IDX 4 1 5 2 3 3 2 4 1 5 6 6 7 7 8 8
REMARK H PARENT 8 9
ROOT
ATOM      1  C   UNL     1       6.689  -1.169 -18.837  1.00  0.00     0.096 C 
ATOM      2  C   UNL     1       6.340  -1.790 -20.189  1.00  0.00     0.020 C 
ENDROOT
BRANCH   1   3
ATOM      3  C   UNL     1       8.180  -0.827 -18.696  1.00  0.00     0.015 C 
BRANCH   3   4
ATOM      4  C   UNL     1       8.455   0.323 -17.723  1.00  0.00    -0.003 C 
ATOM      5  C   UNL     1       9.390  -0.106 -16.603  1.00  0.00     0.004 C 
ENDBRANCH   3   4
ENDBRANCH   1   3
BRANCH   1   6
ATOM      6  C   UNL     1       6.301  -2.131 -17.726  1.00  0.00     0.306 C 
ATOM      7  O   UNL     1       6.078  -1.806 -16.570  1.00  0.00    -0.252 OA
BRANCH   6   8
ATOM      8  O   UNL     1       6.189  -3.413 -18.145  1.00  0.00    -0.481 OA
ATOM      9  H   UNL     1       5.656  -3.980 -17.559  1.00  0.00     0.296 HD
ENDBRANCH   6   8
ENDBRANCH   1   6
TORSDOF 4
ENDMDL
MODEL 10
REMARK VINA RESULT:      -4.8      7.605      9.004
REMARK SMILES CCC[C@@H](C)C(=O)O
REMARK SMILES IDX 4 1 5 2 3 3 2 4 1 5 6 6 7 7 8 8
REMARK H PARENT 8 9
ROOT
ATOM      1  C   UNL     1       8.505   0.145 -17.667  1.00  0.00     0.096 C 
ATOM      2  C   UNL     1       7.258   0.764 -17.036  1.00  0.00     0.020 C 
ENDROOT
BRANCH   1   3
ATOM      3  C   UNL     1       8.183  -0.874 -18.771  1.00  0.00     0.015 C 
BRANCH   3   4
ATOM      4  C   UNL     1       6.698  -1.232 -18.858  1.00  0.00    -0.003 C 
ATOM      5  C   UNL     1       6.323  -1.720 -20.248  1.00  0.00     0.004 C 
ENDBRANCH   3   4
ENDBRANCH   1   3
BRANCH   1   6
ATOM      6  C   UNL     1       9.325  -0.545 -16.589  1.00  0.00     0.306 C 
ATOM      7  O   UNL     1      10.440  -0.197 -16.232  1.00  0.00    -0.252 OA
BRANCH   6   8
ATOM      8  O   UNL     1       8.683  -1.591 -16.018  1.00  0.00    -0.481 OA
ATOM      9  H   UNL     1       9.255  -2.163 -15.474  1.00  0.00     0.296 HD
ENDBRANCH   6   8
ENDBRANCH   1   6
TORSDOF 4
ENDMDL
