MODEL 1
REMARK VINA RESULT:      -7.0      0.000      0.000
REMARK SMILES CCCCC/C=C(\C)C=O
REMARK SMILES IDX 4 1 3 2 2 3 1 4 5 5 6 6 7 7 8 8 9 9 10 10
REMARK H PARENT
ROOT
ATOM      1  C   UNL     1       5.266  -2.961 -21.749  1.00  0.00     0.004 C 
ENDROOT
BRANCH   1   2
ATOM      2  C   UNL     1       5.930  -1.767 -21.060  1.00  0.00     0.000 C 
BRANCH   2   3
ATOM      3  C   UNL     1       6.731  -2.207 -19.834  1.00  0.00    -0.003 C 
ATOM      4  C   UNL     1       6.475  -1.294 -18.645  1.00  0.00     0.004 C 
ENDBRANCH   2   3
ENDBRANCH   1   2
BRANCH   1   5
ATOM      5  C   UNL     1       4.349  -2.505 -22.889  1.00  0.00     0.028 C 
BRANCH   5   6
ATOM      6  C   UNL     1       5.094  -1.726 -23.939  1.00  0.00    -0.020 C 
ATOM      7  C   UNL     1       4.510  -1.044 -24.943  1.00  0.00    -0.015 C 
ATOM      8  C   UNL     1       3.040  -0.930 -25.205  1.00  0.00     0.047 C 
BRANCH   7   9
ATOM      9  C   UNL     1       5.401  -0.326 -25.898  1.00  0.00     0.254 C 
ATOM     10  O   UNL     1       5.093  -0.129 -27.067  1.00  0.00    -0.298 OA
ENDBRANCH   7   9
ENDBRANCH   5   6
ENDBRANCH   1   5
TORSDOF 5
ENDMDL
MODEL 2
REMARK VINA RESULT:      -6.8      1.506      2.977
REMARK SMILES CCCCC/C=C(\C)C=O
REMARK SMILES IDX 4 1 3 2 2 3 1 4 5 5 6 6 7 7 8 8 9 9 10 10
REMARK H PARENT
ROOT
ATOM      1  C   UNL     1       4.952  -1.630 -24.268  1.00  0.00     0.004 C 
ENDROOT
BRANCH   1   2
ATOM      2  C   UNL     1       4.063  -2.359 -23.258  1.00  0.00     0.000 C 
BRANCH   2   3
ATOM      3  C   UNL     1       4.886  -2.930 -22.103  1.00  0.00    -0.003 C 
ATOM      4  C   UNL     1       5.783  -1.872 -21.482  1.00  0.00     0.004 C 
ENDBRANCH   2   3
ENDBRANCH   1   2
BRANCH   1   5
ATOM      5  C   UNL     1       4.139  -0.643 -25.113  1.00  0.00     0.028 C 
BRANCH   5   6
ATOM      6  C   UNL     1       4.598  -0.611 -26.546  1.00  0.00    -0.020 C 
ATOM      7  C   UNL     1       5.614   0.144 -27.004  1.00  0.00    -0.015 C 
ATOM      8  C   UNL     1       6.465   1.077 -26.200  1.00  0.00     0.047 C 
BRANCH   7   9
ATOM      9  C   UNL     1       5.938   0.056 -28.457  1.00  0.00     0.254 C 
ATOM     10  O   UNL     1       5.851   1.015 -29.213  1.00  0.00    -0.298 OA
ENDBRANCH   7   9
ENDBRANCH   5   6
ENDBRANCH   1   5
TORSDOF 5
ENDMDL
MODEL 3
REMARK VINA RESULT:      -6.8      2.949      5.751
REMARK SMILES CCCCC/C=C(\C)C=O
REMARK SMILES IDX 4 1 3 2 2 3 1 4 5 5 6 6 7 7 8 8 9 9 10 10
REMARK H PARENT
ROOT
ATOM      1  C   UNL     1       4.259  -2.404 -22.951  1.00  0.00     0.004 C 
ENDROOT
BRANCH   1   2
ATOM      2  C   UNL     1       5.113  -1.598 -23.932  1.00  0.00     0.000 C 
BRANCH   2   3
ATOM      3  C   UNL     1       4.332  -1.257 -25.200  1.00  0.00    -0.003 C 
ATOM      4  C   UNL     1       5.049  -0.205 -26.030  1.00  0.00     0.004 C 
ENDBRANCH   2   3
ENDBRANCH   1   2
BRANCH   1   5
ATOM      5  C   UNL     1       5.123  -3.045 -21.859  1.00  0.00     0.028 C 
BRANCH   5   6
ATOM      6  C   UNL     1       5.973  -2.032 -21.141  1.00  0.00    -0.020 C 
ATOM      7  C   UNL     1       6.410  -2.163 -19.874  1.00  0.00    -0.015 C 
ATOM      8  C   UNL     1       6.143  -3.313 -18.954  1.00  0.00     0.047 C 
BRANCH   7   9
ATOM      9  C   UNL     1       7.244  -1.061 -19.316  1.00  0.00     0.254 C 
ATOM     10  O   UNL     1       7.074  -0.609 -18.190  1.00  0.00    -0.298 OA
ENDBRANCH   7   9
ENDBRANCH   5   6
ENDBRANCH   1   5
TORSDOF 5
ENDMDL
MODEL 4
REMARK VINA RESULT:      -6.8      3.654      6.462
REMARK SMILES CCCCC/C=C(\C)C=O
REMARK SMILES IDX 4 1 3 2 2 3 1 4 5 5 6 6 7 7 8 8 9 9 10 10
REMARK H PARENT
ROOT
ATOM      1  C   UNL     1       5.682  -3.103 -21.239  1.00  0.00     0.004 C 
ENDROOT
BRANCH   1   2
ATOM      2  C   UNL     1       5.346  -1.942 -22.179  1.00  0.00     0.000 C 
BRANCH   2   3
ATOM      3  C   UNL     1       4.400  -2.385 -23.295  1.00  0.00    -0.003 C 
ATOM      4  C   UNL     1       4.601  -1.559 -24.555  1.00  0.00     0.004 C 
ENDBRANCH   2   3
ENDBRANCH   1   2
BRANCH   1   5
ATOM      5  C   UNL     1       6.882  -2.766 -20.348  1.00  0.00     0.028 C 
BRANCH   5   6
ATOM      6  C   UNL     1       6.459  -2.227 -19.008  1.00  0.00    -0.020 C 
ATOM      7  C   UNL     1       7.079  -1.222 -18.360  1.00  0.00    -0.015 C 
ATOM      8  C   UNL     1       8.280  -0.464 -18.832  1.00  0.00     0.047 C 
BRANCH   7   9
ATOM      9  C   UNL     1       6.527  -0.812 -17.037  1.00  0.00     0.254 C 
ATOM     10  O   UNL     1       6.190  -1.622 -16.182  1.00  0.00    -0.298 OA
ENDBRANCH   7   9
ENDBRANCH   5   6
ENDBRANCH   1   5
TORSDOF 5
ENDMDL
MODEL 5
REMARK VINA RESULT:      -6.6      3.510      6.443
REMARK SMILES CCCCC/C=C(\C)C=O
REMARK SMILES IDX 4 1 3 2 2 3 1 4 5 5 6 6 7 7 8 8 9 9 10 10
REMARK H PARENT
ROOT
ATOM      1  C   UNL     1       5.879  -1.820 -21.321  1.00  0.00     0.004 C 
ENDROOT
BRANCH   1   2
ATOM      2  C   UNL     1       5.153  -2.985 -21.998  1.00  0.00     0.000 C 
BRANCH   2   3
ATOM      3  C   UNL     1       4.248  -2.496 -23.128  1.00  0.00    -0.003 C 
ATOM      4  C   UNL     1       5.001  -1.599 -24.097  1.00  0.00     0.004 C 
ENDBRANCH   2   3
ENDBRANCH   1   2
BRANCH   1   5
ATOM      5  C   UNL     1       6.498  -2.251 -19.987  1.00  0.00     0.028 C 
BRANCH   5   6
ATOM      6  C   UNL     1       7.148  -1.101 -19.266  1.00  0.00    -0.020 C 
ATOM      7  C   UNL     1       7.009  -0.848 -17.951  1.00  0.00    -0.015 C 
ATOM      8  C   UNL     1       6.201  -1.641 -16.971  1.00  0.00     0.047 C 
BRANCH   7   9
ATOM      9  C   UNL     1       7.724   0.337 -17.398  1.00  0.00     0.254 C 
ATOM     10  O   UNL     1       8.945   0.395 -17.319  1.00  0.00    -0.298 OA
ENDBRANCH   7   9
ENDBRANCH   5   6
ENDBRANCH   1   5
TORSDOF 5
ENDMDL
MODEL 6
REMARK VINA RESULT:      -6.0      1.392      2.560
REMARK SMILES CCCCC/C=C(\C)C=O
REMARK SMILES IDX 4 1 3 2 2 3 1 4 5 5 6 6 7 7 8 8 9 9 10 10
REMARK H PARENT
ROOT
ATOM      1  C   UNL     1       7.003  -2.085 -19.800  1.00  0.00     0.004 C 
ENDROOT
BRANCH   1   2
ATOM      2  C   UNL     1       6.338  -1.324 -18.650  1.00  0.00     0.000 C 
BRANCH   2   3
ATOM      3  C   UNL     1       7.377  -0.766 -17.678  1.00  0.00    -0.003 C 
ATOM      4  C   UNL     1       8.724  -0.567 -18.355  1.00  0.00     0.004 C 
ENDBRANCH   2   3
ENDBRANCH   1   2
BRANCH   1   5
ATOM      5  C   UNL     1       5.957  -2.711 -20.729  1.00  0.00     0.028 C 
BRANCH   5   6
ATOM      6  C   UNL     1       5.831  -1.959 -22.027  1.00  0.00    -0.020 C 
ATOM      7  C   UNL     1       4.886  -2.196 -22.958  1.00  0.00    -0.015 C 
ATOM      8  C   UNL     1       3.804  -3.228 -22.886  1.00  0.00     0.047 C 
BRANCH   7   9
ATOM      9  C   UNL     1       4.906  -1.356 -24.189  1.00  0.00     0.254 C 
ATOM     10  O   UNL     1       4.229  -1.615 -25.176  1.00  0.00    -0.298 OA
ENDBRANCH   7   9
ENDBRANCH   5   6
ENDBRANCH   1   5
TORSDOF 5
ENDMDL
MODEL 7
REMARK VINA RESULT:      -5.8      2.585      5.488
REMARK SMILES CCCCC/C=C(\C)C=O
REMARK SMILES IDX 4 1 3 2 2 3 1 4 5 5 6 6 7 7 8 8 9 9 10 10
REMARK H PARENT
ROOT
ATOM      1  C   UNL     1       4.597  -1.245 -26.218  1.00  0.00     0.004 C 
ENDROOT
BRANCH   1   2
ATOM      2  C   UNL     1       5.203   0.147 -26.408  1.00  0.00     0.000 C 
BRANCH   2   3
ATOM      3  C   UNL     1       6.230   0.159 -27.540  1.00  0.00    -0.003 C 
ATOM      4  C   UNL     1       7.204   1.317 -27.396  1.00  0.00     0.004 C 
ENDBRANCH   2   3
ENDBRANCH   1   2
BRANCH   1   5
ATOM      5  C   UNL     1       3.910  -1.371 -24.855  1.00  0.00     0.028 C 
BRANCH   5   6
ATOM      6  C   UNL     1       4.896  -1.339 -23.718  1.00  0.00    -0.020 C 
ATOM      7  C   UNL     1       4.948  -2.249 -22.726  1.00  0.00    -0.015 C 
ATOM      8  C   UNL     1       4.056  -3.440 -22.563  1.00  0.00     0.047 C 
BRANCH   7   9
ATOM      9  C   UNL     1       5.990  -2.066 -21.677  1.00  0.00     0.254 C 
ATOM     10  O   UNL     1       6.171  -2.877 -20.777  1.00  0.00    -0.298 OA
ENDBRANCH   7   9
ENDBRANCH   5   6
ENDBRANCH   1   5
TORSDOF 5
ENDMDL
MODEL 8
REMARK VINA RESULT:      -5.5      4.490      7.548
REMARK SMILES CCCCC/C=C(\C)C=O
REMARK SMILES IDX 4 1 3 2 2 3 1 4 5 5 6 6 7 7 8 8 9 9 10 10
REMARK H PARENT
ROOT
ATOM      1  C   UNL     1       6.672  -1.318 -19.760  1.00  0.00     0.004 C 
ENDROOT
BRANCH   1   2
ATOM      2  C   UNL     1       6.742  -2.778 -20.213  1.00  0.00     0.000 C 
BRANCH   2   3
ATOM      3  C   UNL     1       5.586  -3.127 -21.151  1.00  0.00    -0.003 C 
ATOM      4  C   UNL     1       5.371  -2.044 -22.196  1.00  0.00     0.004 C 
ENDBRANCH   2   3
ENDBRANCH   1   2
BRANCH   1   5
ATOM      5  C   UNL     1       6.786  -1.203 -18.237  1.00  0.00     0.028 C 
BRANCH   5   6
ATOM      6  C   UNL     1       7.772  -0.144 -17.821  1.00  0.00    -0.020 C 
ATOM      7  C   UNL     1       8.574  -0.230 -16.743  1.00  0.00    -0.015 C 
ATOM      8  C   UNL     1       8.642  -1.366 -15.770  1.00  0.00     0.047 C 
BRANCH   7   9
ATOM      9  C   UNL     1       9.493   0.913 -16.476  1.00  0.00     0.254 C 
ATOM     10  O   UNL     1      10.647   0.758 -16.093  1.00  0.00    -0.298 OA
ENDBRANCH   7   9
ENDBRANCH   5   6
ENDBRANCH   1   5
TORSDOF 5
ENDMDL
MODEL 9
REMARK VINA RESULT:      -5.5     10.664     12.467
REMARK SMILES CCCCC/C=C(\C)C=O
REMARK SMILES IDX 4 1 3 2 2 3 1 4 5 5 6 6 7 7 8 8 9 9 10 10
REMARK H PARENT
ROOT
ATOM      1  C   UNL     1      -1.609  -8.922 -26.540  1.00  0.00     0.004 C 
ENDROOT
BRANCH   1   2
ATOM      2  C   UNL     1      -2.446  -8.926 -27.821  1.00  0.00     0.000 C 
BRANCH   2   3
ATOM      3  C   UNL     1      -3.590  -9.936 -27.737  1.00  0.00    -0.003 C 
ATOM      4  C   UNL     1      -4.818  -9.333 -27.075  1.00  0.00     0.004 C 
ENDBRANCH   2   3
ENDBRANCH   1   2
BRANCH   1   5
ATOM      5  C   UNL     1      -0.166  -9.353 -26.819  1.00  0.00     0.028 C 
BRANCH   5   6
ATOM      6  C   UNL     1       0.029 -10.834 -26.633  1.00  0.00    -0.020 C 
ATOM      7  C   UNL     1       0.698 -11.394 -25.608  1.00  0.00    -0.015 C 
ATOM      8  C   UNL     1       1.365 -10.671 -24.478  1.00  0.00     0.047 C 
BRANCH   7   9
ATOM      9  C   UNL     1       0.797 -12.881 -25.579  1.00  0.00     0.254 C 
ATOM     10  O   UNL     1       1.610 -13.503 -26.251  1.00  0.00    -0.298 OA
ENDBRANCH   7   9
ENDBRANCH   5   6
ENDBRANCH   1   5
TORSDOF 5
ENDMDL
MODEL 10
REMARK VINA RESULT:      -5.4     11.298     12.989
REMARK SMILES CCCCC/C=C(\C)C=O
REMARK SMILES IDX 4 1 3 2 2 3 1 4 5 5 6 6 7 7 8 8 9 9 10 10
REMARK H PARENT
ROOT
ATOM      1  C   UNL     1      -3.722  -8.593 -27.092  1.00  0.00     0.004 C 
ENDROOT
BRANCH   1   2
ATOM      2  C   UNL     1      -4.502  -9.875 -27.386  1.00  0.00     0.000 C 
BRANCH   2   3
ATOM      3  C   UNL     1      -5.651 -10.069 -26.396  1.00  0.00    -0.003 C 
ATOM      4  C   UNL     1      -6.025 -11.535 -26.256  1.00  0.00     0.004 C 
ENDBRANCH   2   3
ENDBRANCH   1   2
BRANCH   1   5
ATOM      5  C   UNL     1      -2.338  -8.622 -27.748  1.00  0.00     0.028 C 
BRANCH   5   6
ATOM      6  C   UNL     1      -1.274  -9.116 -26.806  1.00  0.00    -0.020 C 
ATOM      7  C   UNL     1      -0.771 -10.365 -26.809  1.00  0.00    -0.015 C 
ATOM      8  C   UNL     1      -1.162 -11.481 -27.728  1.00  0.00     0.047 C 
BRANCH   7   9
ATOM      9  C   UNL     1       0.280 -10.688 -25.803  1.00  0.00     0.254 C 
ATOM     10  O   UNL     1       0.712 -11.823 -25.639  1.00  0.00    -0.298 OA
ENDBRANCH   7   9
ENDBRANCH   5   6
ENDBRANCH   1   5
TORSDOF 5
ENDMDL
