MODEL 1
REMARK VINA RESULT:      -6.6      0.000      0.000
REMARK SMILES COc1cc(/C=C/C=O)ccc1O
REMARK SMILES IDX 3 1 12 2 11 3 10 4 5 5 4 6 2 7 1 8 13 9 6 11 7 12 8 13 9 14
REMARK H PARENT 13 10
ROOT
ATOM      1  C   UNL     1       6.682  -1.082 -18.375  1.00  0.00     0.161 A 
ATOM      2  C   UNL     1       6.419  -2.262 -17.673  1.00  0.00     0.157 A 
ATOM      3  C   UNL     1       6.015  -3.420 -18.324  1.00  0.00     0.051 A 
ATOM      4  C   UNL     1       5.872  -3.410 -19.711  1.00  0.00     0.012 A 
ATOM      5  C   UNL     1       6.143  -2.244 -20.444  1.00  0.00    -0.022 A 
ATOM      6  C   UNL     1       6.535  -1.077 -19.764  1.00  0.00     0.058 A 
ENDROOT
BRANCH   1   7
ATOM      7  O   UNL     1       7.068  -0.021 -17.596  1.00  0.00    -0.493 OA
ATOM      8  C   UNL     1       8.443   0.343 -17.646  1.00  0.00     0.278 C 
ENDBRANCH   1   7
BRANCH   2   9
ATOM      9  O   UNL     1       6.549  -2.300 -16.311  1.00  0.00    -0.504 OA
ATOM     10  H   UNL     1       6.011  -3.065 -16.028  1.00  0.00     0.293 HD
ENDBRANCH   2   9
BRANCH   5  11
ATOM     11  C   UNL     1       5.971  -2.189 -21.904  1.00  0.00     0.011 C 
ATOM     12  C   UNL     1       4.771  -2.143 -22.500  1.00  0.00     0.044 C 
BRANCH  12  13
ATOM     13  C   UNL     1       4.679  -2.097 -23.972  1.00  0.00     0.252 C 
ATOM     14  O   UNL     1       5.187  -1.187 -24.613  1.00  0.00    -0.299 OA
ENDBRANCH  12  13
ENDBRANCH   5  11
TORSDOF 4
ENDMDL
MODEL 2
REMARK VINA RESULT:      -5.9     12.679     13.481
REMARK SMILES COc1cc(/C=C/C=O)ccc1O
REMARK SMILES IDX 3 1 12 2 11 3 10 4 5 5 4 6 2 7 1 8 13 9 6 11 7 12 8 13 9 14
REMARK H PARENT 13 10
ROOT
ATOM      1  C   UNL     1      -2.944   0.734 -27.972  1.00  0.00     0.161 A 
ATOM      2  C   UNL     1      -2.663  -0.124 -29.040  1.00  0.00     0.157 A 
ATOM      3  C   UNL     1      -3.214  -1.396 -29.114  1.00  0.00     0.051 A 
ATOM      4  C   UNL     1      -4.070  -1.829 -28.103  1.00  0.00     0.012 A 
ATOM      5  C   UNL     1      -4.381  -0.986 -27.025  1.00  0.00    -0.022 A 
ATOM      6  C   UNL     1      -3.800   0.294 -26.960  1.00  0.00     0.058 A 
ENDROOT
BRANCH   1   7
ATOM      7  O   UNL     1      -2.324   1.956 -28.036  1.00  0.00    -0.493 OA
ATOM      8  C   UNL     1      -3.147   3.076 -28.339  1.00  0.00     0.278 C 
ENDBRANCH   1   7
BRANCH   2   9
ATOM      9  O   UNL     1      -1.825   0.276 -30.046  1.00  0.00    -0.504 OA
ATOM     10  H   UNL     1      -2.304   0.065 -30.872  1.00  0.00     0.293 HD
ENDBRANCH   2   9
BRANCH   5  11
ATOM     11  C   UNL     1      -5.254  -1.423 -25.925  1.00  0.00     0.011 C 
ATOM     12  C   UNL     1      -5.587  -0.632 -24.895  1.00  0.00     0.044 C 
BRANCH  12  13
ATOM     13  C   UNL     1      -6.462  -1.145 -23.823  1.00  0.00     0.252 C 
ATOM     14  O   UNL     1      -7.389  -1.907 -24.068  1.00  0.00    -0.299 OA
ENDBRANCH  12  13
ENDBRANCH   5  11
TORSDOF 4
ENDMDL
MODEL 3
REMARK VINA RESULT:      -5.9     12.521     14.523
REMARK SMILES COc1cc(/C=C/C=O)ccc1O
REMARK SMILES IDX 3 1 12 2 11 3 10 4 5 5 4 6 2 7 1 8 13 9 6 11 7 12 8 13 9 14
REMARK H PARENT 13 10
ROOT
ATOM      1  C   UNL     1      -4.140  -0.335 -30.031  1.00  0.00     0.161 A 
ATOM      2  C   UNL     1      -2.803   0.020 -30.237  1.00  0.00     0.157 A 
ATOM      3  C   UNL     1      -1.968   0.353 -29.179  1.00  0.00     0.051 A 
ATOM      4  C   UNL     1      -2.471   0.329 -27.879  1.00  0.00     0.012 A 
ATOM      5  C   UNL     1      -3.804  -0.036 -27.639  1.00  0.00    -0.022 A 
ATOM      6  C   UNL     1      -4.639  -0.354 -28.726  1.00  0.00     0.058 A 
ENDROOT
BRANCH   1   7
ATOM      7  O   UNL     1      -4.840  -0.634 -31.172  1.00  0.00    -0.493 OA
ATOM      8  C   UNL     1      -6.198  -0.212 -31.217  1.00  0.00     0.278 C 
ENDBRANCH   1   7
BRANCH   2   9
ATOM      9  O   UNL     1      -2.285   0.053 -31.503  1.00  0.00    -0.504 OA
ATOM     10  H   UNL     1      -2.148   1.002 -31.695  1.00  0.00     0.293 HD
ENDBRANCH   2   9
BRANCH   5  11
ATOM     11  C   UNL     1      -4.376  -0.040 -26.284  1.00  0.00     0.011 C 
ATOM     12  C   UNL     1      -5.278  -0.942 -25.871  1.00  0.00     0.044 C 
BRANCH  12  13
ATOM     13  C   UNL     1      -5.812  -0.875 -24.497  1.00  0.00     0.252 C 
ATOM     14  O   UNL     1      -6.480  -1.788 -24.029  1.00  0.00    -0.299 OA
ENDBRANCH  12  13
ENDBRANCH   5  11
TORSDOF 4
ENDMDL
MODEL 4
REMARK VINA RESULT:      -5.7      2.728      4.370
REMARK SMILES COc1cc(/C=C/C=O)ccc1O
REMARK SMILES IDX 3 1 12 2 11 3 10 4 5 5 4 6 2 7 1 8 13 9 6 11 7 12 8 13 9 14
REMARK H PARENT 13 10
ROOT
ATOM      1  C   UNL     1       9.705   0.035 -16.049  1.00  0.00     0.161 A 
ATOM      2  C   UNL     1       8.893   1.113 -15.681  1.00  0.00     0.157 A 
ATOM      3  C   UNL     1       7.741   1.429 -16.387  1.00  0.00     0.051 A 
ATOM      4  C   UNL     1       7.379   0.652 -17.486  1.00  0.00     0.012 A 
ATOM      5  C   UNL     1       8.166  -0.445 -17.871  1.00  0.00    -0.022 A 
ATOM      6  C   UNL     1       9.339  -0.738 -17.153  1.00  0.00     0.058 A 
ENDROOT
BRANCH   1   7
ATOM      7  O   UNL     1      10.811  -0.150 -15.259  1.00  0.00    -0.493 OA
ATOM      8  C   UNL     1      12.043   0.360 -15.755  1.00  0.00     0.278 C 
ENDBRANCH   1   7
BRANCH   2   9
ATOM      9  O   UNL     1       9.226   1.893 -14.607  1.00  0.00    -0.504 OA
ATOM     10  H   UNL     1       9.828   1.340 -14.071  1.00  0.00     0.293 HD
ENDBRANCH   2   9
BRANCH   5  11
ATOM     11  C   UNL     1       7.831  -1.265 -19.045  1.00  0.00     0.011 C 
ATOM     12  C   UNL     1       6.576  -1.611 -19.364  1.00  0.00     0.044 C 
BRANCH  12  13
ATOM     13  C   UNL     1       6.320  -2.445 -20.555  1.00  0.00     0.252 C 
ATOM     14  O   UNL     1       6.676  -3.615 -20.602  1.00  0.00    -0.299 OA
ENDBRANCH  12  13
ENDBRANCH   5  11
TORSDOF 4
ENDMDL
MODEL 5
REMARK VINA RESULT:      -5.6     12.393     14.707
REMARK SMILES COc1cc(/C=C/C=O)ccc1O
REMARK SMILES IDX 3 1 12 2 11 3 10 4 5 5 4 6 2 7 1 8 13 9 6 11 7 12 8 13 9 14
REMARK H PARENT 13 10
ROOT
ATOM      1  C   UNL     1      -0.948 -10.225 -27.110  1.00  0.00     0.161 A 
ATOM      2  C   UNL     1      -0.873  -8.857 -27.390  1.00  0.00     0.157 A 
ATOM      3  C   UNL     1      -2.009  -8.107 -27.663  1.00  0.00     0.051 A 
ATOM      4  C   UNL     1      -3.256  -8.731 -27.655  1.00  0.00     0.012 A 
ATOM      5  C   UNL     1      -3.365 -10.099 -27.365  1.00  0.00    -0.022 A 
ATOM      6  C   UNL     1      -2.200 -10.844 -27.107  1.00  0.00     0.058 A 
ENDROOT
BRANCH   1   7
ATOM      7  O   UNL     1       0.258 -10.831 -26.864  1.00  0.00    -0.493 OA
ATOM      8  C   UNL     1       0.524 -11.201 -25.516  1.00  0.00     0.278 C 
ENDBRANCH   1   7
BRANCH   2   9
ATOM      9  O   UNL     1       0.339  -8.220 -27.406  1.00  0.00    -0.504 OA
ATOM     10  H   UNL     1       0.134  -7.284 -27.215  1.00  0.00     0.293 HD
ENDBRANCH   2   9
BRANCH   5  11
ATOM     11  C   UNL     1      -4.661 -10.795 -27.380  1.00  0.00     0.011 C 
ATOM     12  C   UNL     1      -5.333 -11.118 -26.267  1.00  0.00     0.044 C 
BRANCH  12  13
ATOM     13  C   UNL     1      -6.625 -11.824 -26.363  1.00  0.00     0.252 C 
ATOM     14  O   UNL     1      -6.772 -12.949 -25.902  1.00  0.00    -0.299 OA
ENDBRANCH  12  13
ENDBRANCH   5  11
TORSDOF 4
ENDMDL
MODEL 6
REMARK VINA RESULT:      -5.6     14.748     17.787
REMARK SMILES COc1cc(/C=C/C=O)ccc1O
REMARK SMILES IDX 3 1 12 2 11 3 10 4 5 5 4 6 2 7 1 8 13 9 6 11 7 12 8 13 9 14
REMARK H PARENT 13 10
ROOT
ATOM      1  C   UNL     1      -5.147   0.237 -31.078  1.00  0.00     0.161 A 
ATOM      2  C   UNL     1      -4.750   1.466 -30.541  1.00  0.00     0.157 A 
ATOM      3  C   UNL     1      -5.598   2.564 -30.533  1.00  0.00     0.051 A 
ATOM      4  C   UNL     1      -6.880   2.440 -31.068  1.00  0.00     0.012 A 
ATOM      5  C   UNL     1      -7.312   1.216 -31.601  1.00  0.00    -0.022 A 
ATOM      6  C   UNL     1      -6.431   0.120 -31.615  1.00  0.00     0.058 A 
ENDROOT
BRANCH   1   7
ATOM      7  O   UNL     1      -4.199  -0.753 -31.018  1.00  0.00    -0.493 OA
ATOM      8  C   UNL     1      -4.312  -1.682 -29.947  1.00  0.00     0.278 C 
ENDBRANCH   1   7
BRANCH   2   9
ATOM      9  O   UNL     1      -3.497   1.615 -30.011  1.00  0.00    -0.504 OA
ATOM     10  H   UNL     1      -2.967   0.896 -30.410  1.00  0.00     0.293 HD
ENDBRANCH   2   9
BRANCH   5  11
ATOM     11  C   UNL     1      -8.645   1.060 -32.203  1.00  0.00     0.011 C 
ATOM     12  C   UNL     1      -8.911   0.179 -33.177  1.00  0.00     0.044 C 
BRANCH  12  13
ATOM     13  C   UNL     1     -10.274   0.086 -33.737  1.00  0.00     0.252 C 
ATOM     14  O   UNL     1     -11.258   0.034 -33.012  1.00  0.00    -0.299 OA
ENDBRANCH  12  13
ENDBRANCH   5  11
TORSDOF 4
ENDMDL
MODEL 7
REMARK VINA RESULT:      -5.5     15.262     19.214
REMARK SMILES COc1cc(/C=C/C=O)ccc1O
REMARK SMILES IDX 3 1 12 2 11 3 10 4 5 5 4 6 2 7 1 8 13 9 6 11 7 12 8 13 9 14
REMARK H PARENT 13 10
ROOT
ATOM      1  C   UNL     1      -9.383  -0.808 -31.954  1.00  0.00     0.161 A 
ATOM      2  C   UNL     1     -10.105   0.050 -32.790  1.00  0.00     0.157 A 
ATOM      3  C   UNL     1      -9.513   1.158 -33.379  1.00  0.00     0.051 A 
ATOM      4  C   UNL     1      -8.166   1.423 -33.136  1.00  0.00     0.012 A 
ATOM      5  C   UNL     1      -7.412   0.573 -32.313  1.00  0.00    -0.022 A 
ATOM      6  C   UNL     1      -8.035  -0.537 -31.712  1.00  0.00     0.058 A 
ENDROOT
BRANCH   1   7
ATOM      7  O   UNL     1     -10.104  -1.858 -31.443  1.00  0.00    -0.493 OA
ATOM      8  C   UNL     1      -9.363  -2.893 -30.809  1.00  0.00     0.278 C 
ENDBRANCH   1   7
BRANCH   2   9
ATOM      9  O   UNL     1     -11.429  -0.186 -33.043  1.00  0.00    -0.504 OA
ATOM     10  H   UNL     1     -11.798   0.686 -33.288  1.00  0.00     0.293 HD
ENDBRANCH   2   9
BRANCH   5  11
ATOM     11  C   UNL     1      -5.998   0.840 -32.009  1.00  0.00     0.011 C 
ATOM     12  C   UNL     1      -5.266   0.074 -31.189  1.00  0.00     0.044 C 
BRANCH  12  13
ATOM     13  C   UNL     1      -3.854   0.411 -30.927  1.00  0.00     0.252 C 
ATOM     14  O   UNL     1      -2.947  -0.343 -31.254  1.00  0.00    -0.299 OA
ENDBRANCH  12  13
ENDBRANCH   5  11
TORSDOF 4
ENDMDL
MODEL 8
REMARK VINA RESULT:      -5.5     16.156     19.435
REMARK SMILES COc1cc(/C=C/C=O)ccc1O
REMARK SMILES IDX 3 1 12 2 11 3 10 4 5 5 4 6 2 7 1 8 13 9 6 11 7 12 8 13 9 14
REMARK H PARENT 13 10
ROOT
ATOM      1  C   UNL     1      -9.711   0.618 -31.616  1.00  0.00     0.161 A 
ATOM      2  C   UNL     1      -9.906   0.379 -32.979  1.00  0.00     0.157 A 
ATOM      3  C   UNL     1      -8.894   0.585 -33.906  1.00  0.00     0.051 A 
ATOM      4  C   UNL     1      -7.650   1.039 -33.468  1.00  0.00     0.012 A 
ATOM      5  C   UNL     1      -7.420   1.276 -32.104  1.00  0.00    -0.022 A 
ATOM      6  C   UNL     1      -8.464   1.076 -31.183  1.00  0.00     0.058 A 
ENDROOT
BRANCH   1   7
ATOM      7  O   UNL     1     -10.804   0.372 -30.824  1.00  0.00    -0.493 OA
ATOM      8  C   UNL     1     -10.610  -0.504 -29.720  1.00  0.00     0.278 C 
ENDBRANCH   1   7
BRANCH   2   9
ATOM      9  O   UNL     1     -11.117  -0.065 -33.436  1.00  0.00    -0.504 OA
ATOM     10  H   UNL     1     -10.902  -0.783 -34.064  1.00  0.00     0.293 HD
ENDBRANCH   2   9
BRANCH   5  11
ATOM     11  C   UNL     1      -6.131   1.786 -31.612  1.00  0.00     0.011 C 
ATOM     12  C   UNL     1      -6.029   2.765 -30.702  1.00  0.00     0.044 C 
BRANCH  12  13
ATOM     13  C   UNL     1      -4.698   3.229 -30.263  1.00  0.00     0.252 C 
ATOM     14  O   UNL     1      -4.280   4.339 -30.565  1.00  0.00    -0.299 OA
ENDBRANCH  12  13
ENDBRANCH   5  11
TORSDOF 4
ENDMDL
MODEL 9
REMARK VINA RESULT:      -5.3     12.524     14.903
REMARK SMILES COc1cc(/C=C/C=O)ccc1O
REMARK SMILES IDX 3 1 12 2 11 3 10 4 5 5 4 6 2 7 1 8 13 9 6 11 7 12 8 13 9 14
REMARK H PARENT 13 10
ROOT
ATOM      1  C   UNL     1      -3.259   1.944 -28.832  1.00  0.00     0.161 A 
ATOM      2  C   UNL     1      -2.427   0.855 -28.555  1.00  0.00     0.157 A 
ATOM      3  C   UNL     1      -2.576  -0.359 -29.211  1.00  0.00     0.051 A 
ATOM      4  C   UNL     1      -3.576  -0.497 -30.173  1.00  0.00     0.012 A 
ATOM      5  C   UNL     1      -4.418   0.582 -30.482  1.00  0.00    -0.022 A 
ATOM      6  C   UNL     1      -4.261   1.799 -29.795  1.00  0.00     0.058 A 
ENDROOT
BRANCH   1   7
ATOM      7  O   UNL     1      -2.993   3.075 -28.102  1.00  0.00    -0.493 OA
ATOM      8  C   UNL     1      -3.251   4.321 -28.737  1.00  0.00     0.278 C 
ENDBRANCH   1   7
BRANCH   2   9
ATOM      9  O   UNL     1      -1.438   0.963 -27.615  1.00  0.00    -0.504 OA
ATOM     10  H   UNL     1      -0.619   0.702 -28.079  1.00  0.00     0.293 HD
ENDBRANCH   2   9
BRANCH   5  11
ATOM     11  C   UNL     1      -5.504   0.460 -31.467  1.00  0.00     0.011 C 
ATOM     12  C   UNL     1      -6.709  -0.047 -31.172  1.00  0.00     0.044 C 
BRANCH  12  13
ATOM     13  C   UNL     1      -7.746  -0.143 -32.217  1.00  0.00     0.252 C 
ATOM     14  O   UNL     1      -7.649   0.475 -33.269  1.00  0.00    -0.299 OA
ENDBRANCH  12  13
ENDBRANCH   5  11
TORSDOF 4
ENDMDL
MODEL 10
REMARK VINA RESULT:      -5.3     15.012     17.422
REMARK SMILES COc1cc(/C=C/C=O)ccc1O
REMARK SMILES IDX 3 1 12 2 11 3 10 4 5 5 4 6 2 7 1 8 13 9 6 11 7 12 8 13 9 14
REMARK H PARENT 13 10
ROOT
ATOM      1  C   UNL     1      -5.303  -0.447 -30.644  1.00  0.00     0.161 A 
ATOM      2  C   UNL     1      -5.239  -1.550 -29.787  1.00  0.00     0.157 A 
ATOM      3  C   UNL     1      -6.333  -2.380 -29.587  1.00  0.00     0.051 A 
ATOM      4  C   UNL     1      -7.525  -2.112 -30.260  1.00  0.00     0.012 A 
ATOM      5  C   UNL     1      -7.616  -1.020 -31.137  1.00  0.00    -0.022 A 
ATOM      6  C   UNL     1      -6.500  -0.182 -31.313  1.00  0.00     0.058 A 
ENDROOT
BRANCH   1   7
ATOM      7  O   UNL     1      -4.144   0.281 -30.736  1.00  0.00    -0.493 OA
ATOM      8  C   UNL     1      -4.195   1.626 -30.276  1.00  0.00     0.278 C 
ENDBRANCH   1   7
BRANCH   2   9
ATOM      9  O   UNL     1      -4.082  -1.835 -29.113  1.00  0.00    -0.504 OA
ATOM     10  H   UNL     1      -3.777  -0.975 -28.762  1.00  0.00     0.293 HD
ENDBRANCH   2   9
BRANCH   5  11
ATOM     11  C   UNL     1      -8.867  -0.690 -31.837  1.00  0.00     0.011 C 
ATOM     12  C   UNL     1      -8.903  -0.234 -33.097  1.00  0.00     0.044 C 
BRANCH  12  13
ATOM     13  C   UNL     1     -10.198   0.084 -33.730  1.00  0.00     0.252 C 
ATOM     14  O   UNL     1     -11.257  -0.121 -33.151  1.00  0.00    -0.299 OA
ENDBRANCH  12  13
ENDBRANCH   5  11
TORSDOF 4
ENDMDL
