MODEL 1
REMARK VINA RESULT:      -7.9      0.000      0.000
REMARK SMILES CCCCCCC=CC(=O)O
REMARK SMILES IDX 5 1 4 2 3 3 2 4 1 5 6 6 7 7 8 8 9 9 10 10 11 11
REMARK H PARENT 11 12
ROOT
ATOM      1  C   UNL     1       5.619  -2.139 -21.713  1.00  0.00     0.004 C 
ENDROOT
BRANCH   1   2
ATOM      2  C   UNL     1       6.481  -3.084 -20.874  1.00  0.00     0.000 C 
BRANCH   2   3
ATOM      3  C   UNL     1       6.432  -2.713 -19.390  1.00  0.00    -0.000 C 
BRANCH   3   4
ATOM      4  C   UNL     1       6.586  -1.206 -19.189  1.00  0.00    -0.003 C 
ATOM      5  C   UNL     1       8.000  -0.842 -18.767  1.00  0.00     0.004 C 
ENDBRANCH   3   4
ENDBRANCH   2   3
ENDBRANCH   1   2
BRANCH   1   6
ATOM      6  C   UNL     1       4.558  -2.909 -22.502  1.00  0.00     0.027 C 
BRANCH   6   7
ATOM      7  C   UNL     1       4.012  -2.083 -23.631  1.00  0.00    -0.019 C 
ATOM      8  C   UNL     1       4.774  -1.393 -24.495  1.00  0.00     0.089 C 
BRANCH   8   9
ATOM      9  C   UNL     1       4.138  -0.603 -25.572  1.00  0.00     0.327 C 
ATOM     10  O   UNL     1       4.643  -0.375 -26.657  1.00  0.00    -0.247 OA
BRANCH   9  11
ATOM     11  O   UNL     1       2.918  -0.156 -25.214  1.00  0.00    -0.478 OA
ATOM     12  H   UNL     1       2.257  -0.845 -25.027  1.00  0.00     0.297 HD
ENDBRANCH   9  11
ENDBRANCH   8   9
ENDBRANCH   6   7
ENDBRANCH   1   6
TORSDOF 7
ENDMDL
MODEL 2
REMARK VINA RESULT:      -7.6      3.500      6.148
REMARK SMILES CCCCCCC=CC(=O)O
REMARK SMILES IDX 5 1 4 2 3 3 2 4 1 5 6 6 7 7 8 8 9 9 10 10 11 11
REMARK H PARENT 11 12
ROOT
ATOM      1  C   UNL     1       5.099  -1.496 -24.225  1.00  0.00     0.004 C 
ENDROOT
BRANCH   1   2
ATOM      2  C   UNL     1       3.989  -1.032 -25.170  1.00  0.00     0.000 C 
BRANCH   2   3
ATOM      3  C   UNL     1       4.558  -0.566 -26.512  1.00  0.00    -0.000 C 
BRANCH   3   4
ATOM      4  C   UNL     1       5.859   0.213 -26.321  1.00  0.00    -0.003 C 
ATOM      5  C   UNL     1       6.672   0.262 -27.605  1.00  0.00     0.004 C 
ENDBRANCH   3   4
ENDBRANCH   2   3
ENDBRANCH   1   2
BRANCH   1   6
ATOM      6  C   UNL     1       4.542  -2.381 -23.108  1.00  0.00     0.027 C 
BRANCH   6   7
ATOM      7  C   UNL     1       5.253  -2.133 -21.809  1.00  0.00    -0.019 C 
ATOM      8  C   UNL     1       5.872  -3.088 -21.096  1.00  0.00     0.089 C 
BRANCH   8   9
ATOM      9  C   UNL     1       6.540  -2.743 -19.823  1.00  0.00     0.327 C 
ATOM     10  O   UNL     1       7.185  -1.727 -19.629  1.00  0.00    -0.247 OA
BRANCH   9  11
ATOM     11  O   UNL     1       6.355  -3.691 -18.884  1.00  0.00    -0.478 OA
ATOM     12  H   UNL     1       6.949  -4.461 -18.941  1.00  0.00     0.297 HD
ENDBRANCH   9  11
ENDBRANCH   8   9
ENDBRANCH   6   7
ENDBRANCH   1   6
TORSDOF 7
ENDMDL
MODEL 3
REMARK VINA RESULT:      -7.2      3.830      6.151
REMARK SMILES CCCCCCC=CC(=O)O
REMARK SMILES IDX 5 1 4 2 3 3 2 4 1 5 6 6 7 7 8 8 9 9 10 10 11 11
REMARK H PARENT 11 12
ROOT
ATOM      1  C   UNL     1       5.400  -2.144 -22.015  1.00  0.00     0.004 C 
ENDROOT
BRANCH   1   2
ATOM      2  C   UNL     1       4.395  -2.763 -22.988  1.00  0.00     0.000 C 
BRANCH   2   3
ATOM      3  C   UNL     1       3.924  -1.741 -24.026  1.00  0.00    -0.000 C 
BRANCH   3   4
ATOM      4  C   UNL     1       5.103  -1.151 -24.798  1.00  0.00    -0.003 C 
ATOM      5  C   UNL     1       4.635  -0.351 -26.004  1.00  0.00     0.004 C 
ENDBRANCH   3   4
ENDBRANCH   2   3
ENDBRANCH   1   2
BRANCH   1   6
ATOM      6  C   UNL     1       5.838  -3.156 -20.954  1.00  0.00     0.027 C 
BRANCH   6   7
ATOM      7  C   UNL     1       6.809  -2.544 -19.985  1.00  0.00    -0.019 C 
ATOM      8  C   UNL     1       6.780  -1.256 -19.605  1.00  0.00     0.089 C 
BRANCH   8   9
ATOM      9  C   UNL     1       7.786  -0.746 -18.648  1.00  0.00     0.327 C 
ATOM     10  O   UNL     1       7.620   0.205 -17.905  1.00  0.00    -0.247 OA
BRANCH   9  11
ATOM     11  O   UNL     1       8.927  -1.463 -18.689  1.00  0.00    -0.478 OA
ATOM     12  H   UNL     1       9.727  -0.964 -18.931  1.00  0.00     0.297 HD
ENDBRANCH   9  11
ENDBRANCH   8   9
ENDBRANCH   6   7
ENDBRANCH   1   6
TORSDOF 7
ENDMDL
MODEL 4
REMARK VINA RESULT:      -7.1      2.025      3.189
REMARK SMILES CCCCCCC=CC(=O)O
REMARK SMILES IDX 5 1 4 2 3 3 2 4 1 5 6 6 7 7 8 8 9 9 10 10 11 11
REMARK H PARENT 11 12
ROOT
ATOM      1  C   UNL     1       5.074  -1.659 -24.074  1.00  0.00     0.004 C 
ENDROOT
BRANCH   1   2
ATOM      2  C   UNL     1       4.249  -2.475 -23.077  1.00  0.00     0.000 C 
BRANCH   2   3
ATOM      3  C   UNL     1       5.108  -2.961 -21.909  1.00  0.00    -0.000 C 
BRANCH   3   4
ATOM      4  C   UNL     1       5.864  -1.803 -21.256  1.00  0.00    -0.003 C 
ATOM      5  C   UNL     1       6.572  -2.246 -19.986  1.00  0.00     0.004 C 
ENDBRANCH   3   4
ENDBRANCH   2   3
ENDBRANCH   1   2
BRANCH   1   6
ATOM      6  C   UNL     1       4.216  -1.186 -25.249  1.00  0.00     0.027 C 
BRANCH   6   7
ATOM      7  C   UNL     1       4.889  -0.077 -26.005  1.00  0.00    -0.019 C 
ATOM      8  C   UNL     1       5.787  -0.271 -26.984  1.00  0.00     0.089 C 
BRANCH   8   9
ATOM      9  C   UNL     1       6.400   0.889 -27.665  1.00  0.00     0.327 C 
ATOM     10  O   UNL     1       7.192   1.659 -27.151  1.00  0.00    -0.247 OA
BRANCH   9  11
ATOM     11  O   UNL     1       5.979   1.004 -28.940  1.00  0.00    -0.478 OA
ATOM     12  H   UNL     1       5.395   1.762 -29.123  1.00  0.00     0.297 HD
ENDBRANCH   9  11
ENDBRANCH   8   9
ENDBRANCH   6   7
ENDBRANCH   1   6
TORSDOF 7
ENDMDL
MODEL 5
REMARK VINA RESULT:      -6.9      1.429      2.317
REMARK SMILES CCCCCCC=CC(=O)O
REMARK SMILES IDX 5 1 4 2 3 3 2 4 1 5 6 6 7 7 8 8 9 9 10 10 11 11
REMARK H PARENT 11 12
ROOT
ATOM      1  C   UNL     1       7.008  -2.339 -20.046  1.00  0.00     0.004 C 
ENDROOT
BRANCH   1   2
ATOM      2  C   UNL     1       6.468  -1.271 -19.092  1.00  0.00     0.000 C 
BRANCH   2   3
ATOM      3  C   UNL     1       6.222  -1.845 -17.695  1.00  0.00    -0.000 C 
BRANCH   3   4
ATOM      4  C   UNL     1       6.753  -0.909 -16.609  1.00  0.00    -0.003 C 
ATOM      5  C   UNL     1       7.492   0.276 -17.209  1.00  0.00     0.004 C 
ENDBRANCH   3   4
ENDBRANCH   2   3
ENDBRANCH   1   2
BRANCH   1   6
ATOM      6  C   UNL     1       5.874  -3.028 -20.807  1.00  0.00     0.027 C 
BRANCH   6   7
ATOM      7  C   UNL     1       5.428  -2.207 -21.982  1.00  0.00    -0.019 C 
ATOM      8  C   UNL     1       4.501  -2.605 -22.869  1.00  0.00     0.089 C 
BRANCH   8   9
ATOM      9  C   UNL     1       4.134  -1.724 -23.998  1.00  0.00     0.327 C 
ATOM     10  O   UNL     1       2.992  -1.440 -24.316  1.00  0.00    -0.247 OA
BRANCH   9  11
ATOM     11  O   UNL     1       5.219  -1.262 -24.650  1.00  0.00    -0.478 OA
ATOM     12  H   UNL     1       5.762  -1.937 -25.094  1.00  0.00     0.297 HD
ENDBRANCH   9  11
ENDBRANCH   8   9
ENDBRANCH   6   7
ENDBRANCH   1   6
TORSDOF 7
ENDMDL
MODEL 6
REMARK VINA RESULT:      -6.6      4.703      6.905
REMARK SMILES CCCCCCC=CC(=O)O
REMARK SMILES IDX 5 1 4 2 3 3 2 4 1 5 6 6 7 7 8 8 9 9 10 10 11 11
REMARK H PARENT 11 12
ROOT
ATOM      1  C   UNL     1       6.580  -2.799 -19.842  1.00  0.00     0.004 C 
ENDROOT
BRANCH   1   2
ATOM      2  C   UNL     1       5.628  -3.160 -20.984  1.00  0.00     0.000 C 
BRANCH   2   3
ATOM      3  C   UNL     1       5.551  -2.036 -22.020  1.00  0.00    -0.000 C 
BRANCH   3   4
ATOM      4  C   UNL     1       4.534  -2.361 -23.115  1.00  0.00    -0.003 C 
ATOM      5  C   UNL     1       4.781  -1.533 -24.366  1.00  0.00     0.004 C 
ENDBRANCH   3   4
ENDBRANCH   2   3
ENDBRANCH   1   2
BRANCH   1   6
ATOM      6  C   UNL     1       6.756  -1.284 -19.724  1.00  0.00     0.027 C 
BRANCH   6   7
ATOM      7  C   UNL     1       7.295  -0.900 -18.376  1.00  0.00    -0.019 C 
ATOM      8  C   UNL     1       8.207   0.066 -18.179  1.00  0.00     0.089 C 
BRANCH   8   9
ATOM      9  C   UNL     1       8.681   0.365 -16.811  1.00  0.00     0.327 C 
ATOM     10  O   UNL     1       9.817   0.704 -16.526  1.00  0.00    -0.247 OA
BRANCH   9  11
ATOM     11  O   UNL     1       7.702   0.219 -15.896  1.00  0.00    -0.478 OA
ATOM     12  H   UNL     1       7.735   0.837 -15.144  1.00  0.00     0.297 HD
ENDBRANCH   9  11
ENDBRANCH   8   9
ENDBRANCH   6   7
ENDBRANCH   1   6
TORSDOF 7
ENDMDL
MODEL 7
REMARK VINA RESULT:      -6.3     11.013     13.001
REMARK SMILES CCCCCCC=CC(=O)O
REMARK SMILES IDX 5 1 4 2 3 3 2 4 1 5 6 6 7 7 8 8 9 9 10 10 11 11
REMARK H PARENT 11 12
ROOT
ATOM      1  C   UNL     1      -1.920  -8.771 -26.708  1.00  0.00     0.004 C 
ENDROOT
BRANCH   1   2
ATOM      2  C   UNL     1      -2.878  -8.858 -27.898  1.00  0.00     0.000 C 
BRANCH   2   3
ATOM      3  C   UNL     1      -3.859 -10.022 -27.738  1.00  0.00    -0.000 C 
BRANCH   3   4
ATOM      4  C   UNL     1      -5.078  -9.611 -26.912  1.00  0.00    -0.003 C 
ATOM      5  C   UNL     1      -5.699 -10.805 -26.204  1.00  0.00     0.004 C 
ENDBRANCH   3   4
ENDBRANCH   2   3
ENDBRANCH   1   2
BRANCH   1   6
ATOM      6  C   UNL     1      -0.466  -8.673 -27.173  1.00  0.00     0.027 C 
BRANCH   6   7
ATOM      7  C   UNL     1       0.366  -9.783 -26.600  1.00  0.00    -0.019 C 
ATOM      8  C   UNL     1      -0.143 -10.905 -26.064  1.00  0.00     0.089 C 
BRANCH   8   9
ATOM      9  C   UNL     1       0.762 -11.939 -25.519  1.00  0.00     0.327 C 
ATOM     10  O   UNL     1       0.915 -13.050 -25.995  1.00  0.00    -0.247 OA
BRANCH   9  11
ATOM     11  O   UNL     1       1.411 -11.511 -24.418  1.00  0.00    -0.478 OA
ATOM     12  H   UNL     1       1.065 -11.842 -23.571  1.00  0.00     0.297 HD
ENDBRANCH   9  11
ENDBRANCH   8   9
ENDBRANCH   6   7
ENDBRANCH   1   6
TORSDOF 7
ENDMDL
MODEL 8
REMARK VINA RESULT:      -6.2     11.616     13.149
REMARK SMILES CCCCCCC=CC(=O)O
REMARK SMILES IDX 5 1 4 2 3 3 2 4 1 5 6 6 7 7 8 8 9 9 10 10 11 11
REMARK H PARENT 11 12
ROOT
ATOM      1  C   UNL     1      -1.936  -9.663 -27.919  1.00  0.00     0.004 C 
ENDROOT
BRANCH   1   2
ATOM      2  C   UNL     1      -0.842  -8.922 -27.147  1.00  0.00     0.000 C 
BRANCH   2   3
ATOM      3  C   UNL     1       0.372  -9.820 -26.902  1.00  0.00    -0.000 C 
BRANCH   3   4
ATOM      4  C   UNL     1       0.260 -10.553 -25.566  1.00  0.00    -0.003 C 
ATOM      5  C   UNL     1       0.602 -12.028 -25.709  1.00  0.00     0.004 C 
ENDBRANCH   3   4
ENDBRANCH   2   3
ENDBRANCH   1   2
BRANCH   1   6
ATOM      6  C   UNL     1      -3.213  -8.826 -28.013  1.00  0.00     0.027 C 
BRANCH   6   7
ATOM      7  C   UNL     1      -4.275  -9.344 -27.087  1.00  0.00    -0.019 C 
ATOM      8  C   UNL     1      -4.676 -10.625 -27.045  1.00  0.00     0.089 C 
BRANCH   8   9
ATOM      9  C   UNL     1      -5.735 -11.037 -26.099  1.00  0.00     0.327 C 
ATOM     10  O   UNL     1      -6.235 -12.147 -26.055  1.00  0.00    -0.247 OA
BRANCH   9  11
ATOM     11  O   UNL     1      -6.093 -10.031 -25.276  1.00  0.00    -0.478 OA
ATOM     12  H   UNL     1      -7.049  -9.864 -25.208  1.00  0.00     0.297 HD
ENDBRANCH   9  11
ENDBRANCH   8   9
ENDBRANCH   6   7
ENDBRANCH   1   6
TORSDOF 7
ENDMDL
MODEL 9
REMARK VINA RESULT:      -5.4      5.410      7.749
REMARK SMILES CCCCCCC=CC(=O)O
REMARK SMILES IDX 5 1 4 2 3 3 2 4 1 5 6 6 7 7 8 8 9 9 10 10 11 11
REMARK H PARENT 11 12
ROOT
ATOM      1  C   UNL     1       5.967  -1.353 -17.904  1.00  0.00     0.004 C 
ENDROOT
BRANCH   1   2
ATOM      2  C   UNL     1       6.776  -1.179 -19.191  1.00  0.00     0.000 C 
BRANCH   2   3
ATOM      3  C   UNL     1       7.125  -2.531 -19.816  1.00  0.00    -0.000 C 
BRANCH   3   4
ATOM      4  C   UNL     1       5.967  -3.071 -20.656  1.00  0.00    -0.003 C 
ATOM      5  C   UNL     1       5.592  -2.107 -21.770  1.00  0.00     0.004 C 
ENDBRANCH   3   4
ENDBRANCH   2   3
ENDBRANCH   1   2
BRANCH   1   6
ATOM      6  C   UNL     1       6.882  -1.619 -16.706  1.00  0.00     0.027 C 
BRANCH   6   7
ATOM      7  C   UNL     1       7.964  -0.582 -16.605  1.00  0.00    -0.019 C 
ATOM      8  C   UNL     1       9.196  -0.825 -16.130  1.00  0.00     0.089 C 
BRANCH   8   9
ATOM      9  C   UNL     1      10.191   0.266 -16.065  1.00  0.00     0.327 C 
ATOM     10  O   UNL     1      11.332   0.144 -15.657  1.00  0.00    -0.247 OA
BRANCH   9  11
ATOM     11  O   UNL     1       9.688   1.433 -16.516  1.00  0.00    -0.478 OA
ATOM     12  H   UNL     1      10.273   1.944 -17.102  1.00  0.00     0.297 HD
ENDBRANCH   9  11
ENDBRANCH   8   9
ENDBRANCH   6   7
ENDBRANCH   1   6
TORSDOF 7
ENDMDL
MODEL 10
REMARK VINA RESULT:      -5.0     13.261     15.968
REMARK SMILES CCCCCCC=CC(=O)O
REMARK SMILES IDX 5 1 4 2 3 3 2 4 1 5 6 6 7 7 8 8 9 9 10 10 11 11
REMARK H PARENT 11 12
ROOT
ATOM      1  C   UNL     1      -6.157   1.479 -31.212  1.00  0.00     0.004 C 
ENDROOT
BRANCH   1   2
ATOM      2  C   UNL     1      -4.908   0.620 -31.005  1.00  0.00     0.000 C 
BRANCH   2   3
ATOM      3  C   UNL     1      -5.261  -0.738 -30.394  1.00  0.00    -0.000 C 
BRANCH   3   4
ATOM      4  C   UNL     1      -4.008  -1.579 -30.149  1.00  0.00    -0.003 C 
ATOM      5  C   UNL     1      -3.458  -1.363 -28.749  1.00  0.00     0.004 C 
ENDBRANCH   3   4
ENDBRANCH   2   3
ENDBRANCH   1   2
BRANCH   1   6
ATOM      6  C   UNL     1      -6.776   1.237 -32.591  1.00  0.00     0.027 C 
BRANCH   6   7
ATOM      7  C   UNL     1      -8.273   1.335 -32.541  1.00  0.00    -0.019 C 
ATOM      8  C   UNL     1      -9.102   0.522 -33.216  1.00  0.00     0.089 C 
BRANCH   8   9
ATOM      9  C   UNL     1     -10.565   0.703 -33.107  1.00  0.00     0.327 C 
ATOM     10  O   UNL     1     -11.379  -0.203 -33.080  1.00  0.00    -0.247 OA
BRANCH   9  11
ATOM     11  O   UNL     1     -10.907   2.006 -33.038  1.00  0.00    -0.478 OA
ATOM     12  H   UNL     1     -10.167   2.636 -33.075  1.00  0.00     0.297 HD
ENDBRANCH   9  11
ENDBRANCH   8   9
ENDBRANCH   6   7
ENDBRANCH   1   6
TORSDOF 7
ENDMDL
