MODEL 1
REMARK VINA RESULT:      -6.2      0.000      0.000
REMARK SMILES COc1ccc(OC)c(C=CC(=O)O)c1
REMARK SMILES IDX 10 1 11 2 9 3 3 4 15 5 4 6 5 7 6 8 2 9 1 10 7 11 8 12 12 13
REMARK SMILES IDX 13 14 14 15
REMARK H PARENT 14 16
ROOT
ATOM      1  C   UNL     1      -8.616  -0.676 -32.250  1.00  0.00     0.019 C 
ATOM      2  C   UNL     1      -9.443   0.362 -32.051  1.00  0.00     0.094 C 
ENDROOT
BRANCH   1   3
ATOM      3  C   UNL     1      -7.559  -1.054 -31.300  1.00  0.00     0.020 A 
ATOM      4  C   UNL     1      -5.340  -0.581 -30.409  1.00  0.00     0.119 A 
ATOM      5  C   UNL     1      -6.386  -0.280 -31.285  1.00  0.00     0.058 A 
ATOM      6  C   UNL     1      -5.465  -1.665 -29.536  1.00  0.00     0.050 A 
ATOM      7  C   UNL     1      -6.628  -2.434 -29.524  1.00  0.00     0.051 A 
ATOM      8  C   UNL     1      -7.679  -2.112 -30.384  1.00  0.00     0.126 A 
BRANCH   4   9
ATOM      9  O   UNL     1      -4.152   0.092 -30.311  1.00  0.00    -0.497 OA
ATOM     10  C   UNL     1      -3.071  -0.386 -31.103  1.00  0.00     0.278 C 
ENDBRANCH   4   9
BRANCH   8  11
ATOM     11  O   UNL     1      -8.808  -2.891 -30.351  1.00  0.00    -0.496 OA
ATOM     12  C   UNL     1      -8.445  -4.274 -30.307  1.00  0.00     0.278 C 
ENDBRANCH   8  11
ENDBRANCH   1   3
BRANCH   2  13
ATOM     13  C   UNL     1     -10.485   0.663 -33.051  1.00  0.00     0.328 C 
ATOM     14  O   UNL     1     -10.899  -0.127 -33.881  1.00  0.00    -0.247 OA
BRANCH  13  15
ATOM     15  O   UNL     1     -10.935   1.930 -32.945  1.00  0.00    -0.478 OA
ATOM     16  H   UNL     1     -10.515   2.461 -32.245  1.00  0.00     0.297 HD
ENDBRANCH  13  15
ENDBRANCH   2  13
TORSDOF 5
ENDMDL
MODEL 2
REMARK VINA RESULT:      -6.1      1.230      3.497
REMARK SMILES COc1ccc(OC)c(C=CC(=O)O)c1
REMARK SMILES IDX 10 1 11 2 9 3 3 4 15 5 4 6 5 7 6 8 2 9 1 10 7 11 8 12 12 13
REMARK SMILES IDX 13 14 14 15
REMARK H PARENT 14 16
ROOT
ATOM      1  C   UNL     1      -8.768  -0.851 -32.110  1.00  0.00     0.019 C 
ATOM      2  C   UNL     1      -9.747   0.044 -31.908  1.00  0.00     0.094 C 
ENDROOT
BRANCH   1   3
ATOM      3  C   UNL     1      -7.937  -1.392 -31.024  1.00  0.00     0.020 A 
ATOM      4  C   UNL     1      -7.747  -2.983 -29.186  1.00  0.00     0.119 A 
ATOM      5  C   UNL     1      -8.480  -2.422 -30.236  1.00  0.00     0.058 A 
ATOM      6  C   UNL     1      -6.458  -2.514 -28.921  1.00  0.00     0.050 A 
ATOM      7  C   UNL     1      -5.896  -1.505 -29.702  1.00  0.00     0.051 A 
ATOM      8  C   UNL     1      -6.623  -0.967 -30.764  1.00  0.00     0.126 A 
BRANCH   4   9
ATOM      9  O   UNL     1      -8.172  -3.979 -28.349  1.00  0.00    -0.497 OA
ATOM     10  C   UNL     1      -9.576  -4.106 -28.158  1.00  0.00     0.278 C 
ENDBRANCH   4   9
BRANCH   8  11
ATOM     11  O   UNL     1      -6.044   0.028 -31.512  1.00  0.00    -0.496 OA
ATOM     12  C   UNL     1      -4.661   0.152 -31.169  1.00  0.00     0.278 C 
ENDBRANCH   8  11
ENDBRANCH   1   3
BRANCH   2  13
ATOM     13  C   UNL     1     -10.540   0.524 -33.055  1.00  0.00     0.328 C 
ATOM     14  O   UNL     1     -10.793  -0.135 -34.048  1.00  0.00    -0.247 OA
BRANCH  13  15
ATOM     15  O   UNL     1     -10.960   1.794 -32.881  1.00  0.00    -0.478 OA
ATOM     16  H   UNL     1     -10.608   2.242 -32.092  1.00  0.00     0.297 HD
ENDBRANCH  13  15
ENDBRANCH   2  13
TORSDOF 5
ENDMDL
MODEL 3
REMARK VINA RESULT:      -6.0      2.262      2.756
REMARK SMILES COc1ccc(OC)c(C=CC(=O)O)c1
REMARK SMILES IDX 10 1 11 2 9 3 3 4 15 5 4 6 5 7 6 8 2 9 1 10 7 11 8 12 12 13
REMARK SMILES IDX 13 14 14 15
REMARK H PARENT 14 16
ROOT
ATOM      1  C   UNL     1      -8.481   1.023 -31.685  1.00  0.00     0.019 C 
ATOM      2  C   UNL     1      -8.840   1.074 -32.977  1.00  0.00     0.094 C 
ENDROOT
BRANCH   1   3
ATOM      3  C   UNL     1      -7.089   1.168 -31.232  1.00  0.00     0.020 A 
ATOM      4  C   UNL     1      -5.298   2.680 -30.564  1.00  0.00     0.119 A 
ATOM      5  C   UNL     1      -6.610   2.468 -30.996  1.00  0.00     0.058 A 
ATOM      6  C   UNL     1      -4.455   1.584 -30.362  1.00  0.00     0.050 A 
ATOM      7  C   UNL     1      -4.918   0.286 -30.575  1.00  0.00     0.051 A 
ATOM      8  C   UNL     1      -6.236   0.080 -30.981  1.00  0.00     0.126 A 
BRANCH   4   9
ATOM      9  O   UNL     1      -4.720   3.895 -30.313  1.00  0.00    -0.497 OA
ATOM     10  C   UNL     1      -3.740   3.944 -29.283  1.00  0.00     0.278 C 
ENDBRANCH   4   9
BRANCH   8  11
ATOM     11  O   UNL     1      -6.661  -1.210 -31.186  1.00  0.00    -0.496 OA
ATOM     12  C   UNL     1      -6.646  -1.929 -29.950  1.00  0.00     0.278 C 
ENDBRANCH   8  11
ENDBRANCH   1   3
BRANCH   2  13
ATOM     13  C   UNL     1     -10.262   0.932 -33.342  1.00  0.00     0.328 C 
ATOM     14  O   UNL     1     -10.752  -0.061 -33.849  1.00  0.00    -0.247 OA
BRANCH  13  15
ATOM     15  O   UNL     1     -10.971   2.042 -33.051  1.00  0.00    -0.478 OA
ATOM     16  H   UNL     1     -11.683   1.918 -32.399  1.00  0.00     0.297 HD
ENDBRANCH  13  15
ENDBRANCH   2  13
TORSDOF 5
ENDMDL
MODEL 4
REMARK VINA RESULT:      -5.7      2.150      4.432
REMARK SMILES COc1ccc(OC)c(C=CC(=O)O)c1
REMARK SMILES IDX 10 1 11 2 9 3 3 4 15 5 4 6 5 7 6 8 2 9 1 10 7 11 8 12 12 13
REMARK SMILES IDX 13 14 14 15
REMARK H PARENT 14 16
ROOT
ATOM      1  C   UNL     1      -9.282  -4.074 -30.457  1.00  0.00     0.019 C 
ATOM      2  C   UNL     1     -10.029  -4.366 -29.381  1.00  0.00     0.094 C 
ENDROOT
BRANCH   1   3
ATOM      3  C   UNL     1      -8.306  -2.974 -30.483  1.00  0.00     0.020 A 
ATOM      4  C   UNL     1      -6.181  -2.099 -29.669  1.00  0.00     0.119 A 
ATOM      5  C   UNL     1      -7.151  -3.106 -29.693  1.00  0.00     0.058 A 
ATOM      6  C   UNL     1      -6.365  -0.950 -30.442  1.00  0.00     0.050 A 
ATOM      7  C   UNL     1      -7.496  -0.809 -31.244  1.00  0.00     0.051 A 
ATOM      8  C   UNL     1      -8.447  -1.828 -31.283  1.00  0.00     0.126 A 
BRANCH   4   9
ATOM      9  O   UNL     1      -5.026  -2.111 -28.935  1.00  0.00    -0.497 OA
ATOM     10  C   UNL     1      -3.855  -1.606 -29.565  1.00  0.00     0.278 C 
ENDBRANCH   4   9
BRANCH   8  11
ATOM     11  O   UNL     1      -9.553  -1.657 -32.080  1.00  0.00    -0.496 OA
ATOM     12  C   UNL     1      -9.303  -0.633 -33.046  1.00  0.00     0.278 C 
ENDBRANCH   8  11
ENDBRANCH   1   3
BRANCH   2  13
ATOM     13  C   UNL     1     -10.975  -5.496 -29.438  1.00  0.00     0.328 C 
ATOM     14  O   UNL     1     -11.415  -6.083 -28.464  1.00  0.00    -0.247 OA
BRANCH  13  15
ATOM     15  O   UNL     1     -11.303  -5.816 -30.706  1.00  0.00    -0.478 OA
ATOM     16  H   UNL     1     -11.147  -5.114 -31.363  1.00  0.00     0.297 HD
ENDBRANCH  13  15
ENDBRANCH   2  13
TORSDOF 5
ENDMDL
MODEL 5
REMARK VINA RESULT:      -5.7      1.493      5.031
REMARK SMILES COc1ccc(OC)c(C=CC(=O)O)c1
REMARK SMILES IDX 10 1 11 2 9 3 3 4 15 5 4 6 5 7 6 8 2 9 1 10 7 11 8 12 12 13
REMARK SMILES IDX 13 14 14 15
REMARK H PARENT 14 16
ROOT
ATOM      1  C   UNL     1      -7.564  -2.525 -30.083  1.00  0.00     0.019 C 
ATOM      2  C   UNL     1      -8.463  -3.448 -30.457  1.00  0.00     0.094 C 
ENDROOT
BRANCH   1   3
ATOM      3  C   UNL     1      -7.284  -1.313 -30.868  1.00  0.00     0.020 A 
ATOM      4  C   UNL     1      -7.982   0.166 -32.676  1.00  0.00     0.119 A 
ATOM      5  C   UNL     1      -8.186  -0.972 -31.890  1.00  0.00     0.058 A 
ATOM      6  C   UNL     1      -6.868   0.974 -32.438  1.00  0.00     0.050 A 
ATOM      7  C   UNL     1      -5.971   0.662 -31.417  1.00  0.00     0.051 A 
ATOM      8  C   UNL     1      -6.194  -0.461 -30.620  1.00  0.00     0.126 A 
BRANCH   4   9
ATOM      9  O   UNL     1      -8.783   0.590 -33.701  1.00  0.00    -0.497 OA
ATOM     10  C   UNL     1     -10.154   0.218 -33.646  1.00  0.00     0.278 C 
ENDBRANCH   4   9
BRANCH   8  11
ATOM     11  O   UNL     1      -5.290  -0.744 -29.626  1.00  0.00    -0.496 OA
ATOM     12  C   UNL     1      -3.978  -0.866 -30.182  1.00  0.00     0.278 C 
ENDBRANCH   8  11
ENDBRANCH   1   3
BRANCH   2  13
ATOM     13  C   UNL     1      -8.690  -4.628 -29.603  1.00  0.00     0.328 C 
ATOM     14  O   UNL     1      -9.041  -5.723 -30.010  1.00  0.00    -0.247 OA
BRANCH  13  15
ATOM     15  O   UNL     1      -8.467  -4.359 -28.301  1.00  0.00    -0.478 OA
ATOM     16  H   UNL     1      -8.611  -5.106 -27.693  1.00  0.00     0.297 HD
ENDBRANCH  13  15
ENDBRANCH   2  13
TORSDOF 5
ENDMDL
MODEL 6
REMARK VINA RESULT:      -5.7      1.592      4.323
REMARK SMILES COc1ccc(OC)c(C=CC(=O)O)c1
REMARK SMILES IDX 10 1 11 2 9 3 3 4 15 5 4 6 5 7 6 8 2 9 1 10 7 11 8 12 12 13
REMARK SMILES IDX 13 14 14 15
REMARK H PARENT 14 16
ROOT
ATOM      1  C   UNL     1      -8.398  -2.262 -30.907  1.00  0.00     0.019 C 
ATOM      2  C   UNL     1      -7.767  -3.086 -30.056  1.00  0.00     0.094 C 
ENDROOT
BRANCH   1   3
ATOM      3  C   UNL     1      -7.772  -1.054 -31.467  1.00  0.00     0.020 A 
ATOM      4  C   UNL     1      -5.887   0.490 -31.414  1.00  0.00     0.119 A 
ATOM      5  C   UNL     1      -6.538  -0.649 -30.931  1.00  0.00     0.058 A 
ATOM      6  C   UNL     1      -6.471   1.230 -32.445  1.00  0.00     0.050 A 
ATOM      7  C   UNL     1      -7.687   0.834 -33.001  1.00  0.00     0.051 A 
ATOM      8  C   UNL     1      -8.319  -0.318 -32.531  1.00  0.00     0.126 A 
BRANCH   4   9
ATOM      9  O   UNL     1      -4.692   0.985 -30.966  1.00  0.00    -0.497 OA
ATOM     10  C   UNL     1      -4.639   1.420 -29.614  1.00  0.00     0.278 C 
ENDBRANCH   4   9
BRANCH   8  11
ATOM     11  O   UNL     1      -9.517  -0.679 -33.096  1.00  0.00    -0.496 OA
ATOM     12  C   UNL     1     -10.500   0.327 -32.839  1.00  0.00     0.278 C 
ENDBRANCH   8  11
ENDBRANCH   1   3
BRANCH   2  13
ATOM     13  C   UNL     1      -8.466  -4.284 -29.553  1.00  0.00     0.328 C 
ATOM     14  O   UNL     1      -8.964  -5.144 -30.257  1.00  0.00    -0.247 OA
BRANCH  13  15
ATOM     15  O   UNL     1      -8.495  -4.321 -28.205  1.00  0.00    -0.478 OA
ATOM     16  H   UNL     1      -9.075  -3.661 -27.785  1.00  0.00     0.297 HD
ENDBRANCH  13  15
ENDBRANCH   2  13
TORSDOF 5
ENDMDL
MODEL 7
REMARK VINA RESULT:      -5.6      1.855      5.079
REMARK SMILES COc1ccc(OC)c(C=CC(=O)O)c1
REMARK SMILES IDX 10 1 11 2 9 3 3 4 15 5 4 6 5 7 6 8 2 9 1 10 7 11 8 12 12 13
REMARK SMILES IDX 13 14 14 15
REMARK H PARENT 14 16
ROOT
ATOM      1  C   UNL     1      -8.588  -3.760 -30.270  1.00  0.00     0.019 C 
ATOM      2  C   UNL     1      -9.849  -4.216 -30.331  1.00  0.00     0.094 C 
ENDROOT
BRANCH   1   3
ATOM      3  C   UNL     1      -8.177  -2.461 -30.823  1.00  0.00     0.020 A 
ATOM      4  C   UNL     1      -8.720  -0.593 -32.292  1.00  0.00     0.119 A 
ATOM      5  C   UNL     1      -9.047  -1.830 -31.728  1.00  0.00     0.058 A 
ATOM      6  C   UNL     1      -7.514   0.021 -31.949  1.00  0.00     0.050 A 
ATOM      7  C   UNL     1      -6.645  -0.581 -31.040  1.00  0.00     0.051 A 
ATOM      8  C   UNL     1      -6.989  -1.803 -30.461  1.00  0.00     0.126 A 
BRANCH   4   9
ATOM      9  O   UNL     1      -9.481   0.109 -33.188  1.00  0.00    -0.497 OA
ATOM     10  C   UNL     1     -10.189   1.237 -32.690  1.00  0.00     0.278 C 
ENDBRANCH   4   9
BRANCH   8  11
ATOM     11  O   UNL     1      -6.111  -2.373 -29.573  1.00  0.00    -0.496 OA
ATOM     12  C   UNL     1      -5.116  -1.419 -29.192  1.00  0.00     0.278 C 
ENDBRANCH   8  11
ENDBRANCH   1   3
BRANCH   2  13
ATOM     13  C   UNL     1     -10.177  -5.526 -29.739  1.00  0.00     0.328 C 
ATOM     14  O   UNL     1     -11.096  -6.241 -30.101  1.00  0.00    -0.247 OA
BRANCH  13  15
ATOM     15  O   UNL     1      -9.337  -5.851 -28.736  1.00  0.00    -0.478 OA
ATOM     16  H   UNL     1      -8.465  -6.181 -29.018  1.00  0.00     0.297 HD
ENDBRANCH  13  15
ENDBRANCH   2  13
TORSDOF 5
ENDMDL
MODEL 8
REMARK VINA RESULT:      -5.5      2.052      5.825
REMARK SMILES COc1ccc(OC)c(C=CC(=O)O)c1
REMARK SMILES IDX 10 1 11 2 9 3 3 4 15 5 4 6 5 7 6 8 2 9 1 10 7 11 8 12 12 13
REMARK SMILES IDX 13 14 14 15
REMARK H PARENT 14 16
ROOT
ATOM      1  C   UNL     1      -5.027  -0.339 -30.201  1.00  0.00     0.019 C 
ATOM      2  C   UNL     1      -3.847  -0.714 -30.718  1.00  0.00     0.094 C 
ENDROOT
BRANCH   1   3
ATOM      3  C   UNL     1      -6.308  -0.938 -30.607  1.00  0.00     0.020 A 
ATOM      4  C   UNL     1      -7.885  -2.779 -30.346  1.00  0.00     0.119 A 
ATOM      5  C   UNL     1      -6.681  -2.153 -30.007  1.00  0.00     0.058 A 
ATOM      6  C   UNL     1      -8.726  -2.186 -31.290  1.00  0.00     0.050 A 
ATOM      7  C   UNL     1      -8.381  -0.972 -31.883  1.00  0.00     0.051 A 
ATOM      8  C   UNL     1      -7.190  -0.340 -31.523  1.00  0.00     0.126 A 
BRANCH   4   9
ATOM      9  O   UNL     1      -8.347  -3.962 -29.837  1.00  0.00    -0.497 OA
ATOM     10  C   UNL     1      -9.662  -4.355 -30.208  1.00  0.00     0.278 C 
ENDBRANCH   4   9
BRANCH   8  11
ATOM     11  O   UNL     1      -6.877   0.852 -32.128  1.00  0.00    -0.496 OA
ATOM     12  C   UNL     1      -7.602   0.981 -33.354  1.00  0.00     0.278 C 
ENDBRANCH   8  11
ENDBRANCH   1   3
BRANCH   2  13
ATOM     13  C   UNL     1      -2.609  -0.069 -30.244  1.00  0.00     0.328 C 
ATOM     14  O   UNL     1      -2.388   0.242 -29.086  1.00  0.00    -0.247 OA
BRANCH  13  15
ATOM     15  O   UNL     1      -1.734   0.144 -31.248  1.00  0.00    -0.478 OA
ATOM     16  H   UNL     1      -1.899   0.945 -31.777  1.00  0.00     0.297 HD
ENDBRANCH  13  15
ENDBRANCH   2  13
TORSDOF 5
ENDMDL
MODEL 9
REMARK VINA RESULT:      -5.5      3.168      5.016
REMARK SMILES COc1ccc(OC)c(C=CC(=O)O)c1
REMARK SMILES IDX 10 1 11 2 9 3 3 4 15 5 4 6 5 7 6 8 2 9 1 10 7 11 8 12 12 13
REMARK SMILES IDX 13 14 14 15
REMARK H PARENT 14 16
ROOT
ATOM      1  C   UNL     1      -6.712  -2.538 -29.739  1.00  0.00     0.019 C 
ATOM      2  C   UNL     1      -7.467  -3.569 -29.330  1.00  0.00     0.094 C 
ENDROOT
BRANCH   1   3
ATOM      3  C   UNL     1      -5.729  -1.869 -28.873  1.00  0.00     0.020 A 
ATOM      4  C   UNL     1      -5.142  -1.139 -26.622  1.00  0.00     0.119 A 
ATOM      5  C   UNL     1      -6.030  -1.762 -27.504  1.00  0.00     0.058 A 
ATOM      6  C   UNL     1      -3.941  -0.619 -27.110  1.00  0.00     0.050 A 
ATOM      7  C   UNL     1      -3.618  -0.730 -28.462  1.00  0.00     0.051 A 
ATOM      8  C   UNL     1      -4.497  -1.376 -29.332  1.00  0.00     0.126 A 
BRANCH   4   9
ATOM      9  O   UNL     1      -5.330  -0.969 -25.278  1.00  0.00    -0.497 OA
ATOM     10  C   UNL     1      -6.599  -0.482 -24.859  1.00  0.00     0.278 C 
ENDBRANCH   4   9
BRANCH   8  11
ATOM     11  O   UNL     1      -4.152  -1.466 -30.658  1.00  0.00    -0.496 OA
ATOM     12  C   UNL     1      -3.297  -0.376 -31.013  1.00  0.00     0.278 C 
ENDBRANCH   8  11
ENDBRANCH   1   3
BRANCH   2  13
ATOM     13  C   UNL     1      -8.420  -4.189 -30.270  1.00  0.00     0.328 C 
ATOM     14  O   UNL     1      -8.965  -5.265 -30.096  1.00  0.00    -0.247 OA
BRANCH  13  15
ATOM     15  O   UNL     1      -8.623  -3.424 -31.361  1.00  0.00    -0.478 OA
ATOM     16  H   UNL     1      -7.814  -3.082 -31.783  1.00  0.00     0.297 HD
ENDBRANCH  13  15
ENDBRANCH   2  13
TORSDOF 5
ENDMDL
MODEL 10
REMARK VINA RESULT:      -5.5      3.406      4.396
REMARK SMILES COc1ccc(OC)c(C=CC(=O)O)c1
REMARK SMILES IDX 10 1 11 2 9 3 3 4 15 5 4 6 5 7 6 8 2 9 1 10 7 11 8 12 12 13
REMARK SMILES IDX 13 14 14 15
REMARK H PARENT 14 16
ROOT
ATOM      1  C   UNL     1      -7.118  -2.714 -28.892  1.00  0.00     0.019 C 
ATOM      2  C   UNL     1      -7.579  -3.487 -29.888  1.00  0.00     0.094 C 
ENDROOT
BRANCH   1   3
ATOM      3  C   UNL     1      -5.847  -1.978 -28.969  1.00  0.00     0.020 A 
ATOM      4  C   UNL     1      -4.324  -0.658 -30.340  1.00  0.00     0.119 A 
ATOM      5  C   UNL     1      -5.516  -1.374 -30.194  1.00  0.00     0.058 A 
ATOM      6  C   UNL     1      -3.455  -0.541 -29.252  1.00  0.00     0.050 A 
ATOM      7  C   UNL     1      -3.775  -1.120 -28.025  1.00  0.00     0.051 A 
ATOM      8  C   UNL     1      -4.978  -1.811 -27.879  1.00  0.00     0.126 A 
BRANCH   4   9
ATOM      9  O   UNL     1      -3.892  -0.038 -31.481  1.00  0.00    -0.497 OA
ATOM     10  C   UNL     1      -4.534   1.179 -31.838  1.00  0.00     0.278 C 
ENDBRANCH   4   9
BRANCH   8  11
ATOM     11  O   UNL     1      -5.262  -2.372 -26.658  1.00  0.00    -0.496 OA
ATOM     12  C   UNL     1      -5.292  -1.358 -25.651  1.00  0.00     0.278 C 
ENDBRANCH   8  11
ENDBRANCH   1   3
BRANCH   2  13
ATOM     13  C   UNL     1      -8.871  -4.181 -29.730  1.00  0.00     0.328 C 
ATOM     14  O   UNL     1      -9.559  -4.583 -30.652  1.00  0.00    -0.247 OA
BRANCH  13  15
ATOM     15  O   UNL     1      -9.214  -4.321 -28.434  1.00  0.00    -0.478 OA
ATOM     16  H   UNL     1     -10.098  -3.987 -28.201  1.00  0.00     0.297 HD
ENDBRANCH  13  15
ENDBRANCH   2  13
TORSDOF 5
ENDMDL
