MODEL 1
REMARK VINA RESULT:      -7.2      0.000      0.000
REMARK SMILES CCCC=CC(=O)O
REMARK SMILES IDX 4 1 5 2 3 3 2 4 1 5 6 6 7 7 8 8
REMARK H PARENT 8 9
ROOT
ATOM      1  C   UNL     1       4.060  -2.072 -23.596  1.00  0.00    -0.019 C 
ATOM      2  C   UNL     1       4.796  -1.396 -24.493  1.00  0.00     0.089 C 
ENDROOT
BRANCH   1   3
ATOM      3  C   UNL     1       4.640  -2.890 -22.479  1.00  0.00     0.027 C 
BRANCH   3   4
ATOM      4  C   UNL     1       5.653  -2.081 -21.668  1.00  0.00     0.001 C 
ATOM      5  C   UNL     1       6.361  -2.949 -20.640  1.00  0.00     0.004 C 
ENDBRANCH   3   4
ENDBRANCH   1   3
BRANCH   2   6
ATOM      6  C   UNL     1       4.130  -0.613 -25.557  1.00  0.00     0.327 C 
ATOM      7  O   UNL     1       4.612  -0.374 -26.649  1.00  0.00    -0.247 OA
BRANCH   6   8
ATOM      8  O   UNL     1       2.908  -0.187 -25.178  1.00  0.00    -0.478 OA
ATOM      9  H   UNL     1       2.202  -0.298 -25.838  1.00  0.00     0.297 HD
ENDBRANCH   6   8
ENDBRANCH   2   6
TORSDOF 4
ENDMDL
MODEL 2
REMARK VINA RESULT:      -6.4      3.627      5.127
REMARK SMILES CCCC=CC(=O)O
REMARK SMILES IDX 4 1 5 2 3 3 2 4 1 5 6 6 7 7 8 8
REMARK H PARENT 8 9
ROOT
ATOM      1  C   UNL     1       5.292  -1.999 -22.296  1.00  0.00    -0.019 C 
ATOM      2  C   UNL     1       5.525  -2.903 -21.331  1.00  0.00     0.089 C 
ENDROOT
BRANCH   1   3
ATOM      3  C   UNL     1       4.474  -2.273 -23.524  1.00  0.00     0.027 C 
BRANCH   3   4
ATOM      4  C   UNL     1       4.870  -1.344 -24.673  1.00  0.00     0.001 C 
ATOM      5  C   UNL     1       3.647  -0.790 -25.386  1.00  0.00     0.004 C 
ENDBRANCH   3   4
ENDBRANCH   1   3
BRANCH   2   6
ATOM      6  C   UNL     1       6.342  -2.534 -20.154  1.00  0.00     0.327 C 
ATOM      7  O   UNL     1       6.705  -1.402 -19.888  1.00  0.00    -0.247 OA
BRANCH   6   8
ATOM      8  O   UNL     1       6.643  -3.606 -19.394  1.00  0.00    -0.478 OA
ATOM      9  H   UNL     1       6.453  -3.513 -18.443  1.00  0.00     0.297 HD
ENDBRANCH   6   8
ENDBRANCH   2   6
TORSDOF 4
ENDMDL
MODEL 3
REMARK VINA RESULT:      -6.2      1.256      2.089
REMARK SMILES CCCC=CC(=O)O
REMARK SMILES IDX 4 1 5 2 3 3 2 4 1 5 6 6 7 7 8 8
REMARK H PARENT 8 9
ROOT
ATOM      1  C   UNL     1       5.291  -2.177 -22.152  1.00  0.00    -0.019 C 
ATOM      2  C   UNL     1       4.416  -2.513 -23.113  1.00  0.00     0.089 C 
ENDROOT
BRANCH   1   3
ATOM      3  C   UNL     1       5.652  -3.064 -20.995  1.00  0.00     0.027 C 
BRANCH   3   4
ATOM      4  C   UNL     1       6.913  -2.567 -20.287  1.00  0.00     0.001 C 
ATOM      5  C   UNL     1       6.608  -1.392 -19.371  1.00  0.00     0.004 C 
ENDBRANCH   3   4
ENDBRANCH   1   3
BRANCH   2   6
ATOM      6  C   UNL     1       4.131  -1.570 -24.216  1.00  0.00     0.327 C 
ATOM      7  O   UNL     1       3.017  -1.215 -24.556  1.00  0.00    -0.247 OA
BRANCH   6   8
ATOM      8  O   UNL     1       5.260  -1.137 -24.812  1.00  0.00    -0.478 OA
ATOM      9  H   UNL     1       6.089  -1.503 -24.457  1.00  0.00     0.297 HD
ENDBRANCH   6   8
ENDBRANCH   2   6
TORSDOF 4
ENDMDL
MODEL 4
REMARK VINA RESULT:      -6.1      2.564      4.538
REMARK SMILES CCCC=CC(=O)O
REMARK SMILES IDX 4 1 5 2 3 3 2 4 1 5 6 6 7 7 8 8
REMARK H PARENT 8 9
ROOT
ATOM      1  C   UNL     1       4.243  -1.340 -25.023  1.00  0.00    -0.019 C 
ATOM      2  C   UNL     1       5.202  -1.463 -24.091  1.00  0.00     0.089 C 
ENDROOT
BRANCH   1   3
ATOM      3  C   UNL     1       4.433  -0.636 -26.336  1.00  0.00     0.027 C 
BRANCH   3   4
ATOM      4  C   UNL     1       5.795   0.055 -26.403  1.00  0.00     0.001 C 
ATOM      5  C   UNL     1       6.213   0.320 -27.840  1.00  0.00     0.004 C 
ENDBRANCH   3   4
ENDBRANCH   1   3
BRANCH   2   6
ATOM      6  C   UNL     1       4.918  -2.181 -22.829  1.00  0.00     0.327 C 
ATOM      7  O   UNL     1       5.444  -1.937 -21.758  1.00  0.00    -0.247 OA
BRANCH   6   8
ATOM      8  O   UNL     1       3.995  -3.149 -22.997  1.00  0.00    -0.478 OA
ATOM      9  H   UNL     1       3.717  -3.309 -23.916  1.00  0.00     0.297 HD
ENDBRANCH   6   8
ENDBRANCH   2   6
TORSDOF 4
ENDMDL
MODEL 5
REMARK VINA RESULT:      -6.0      2.279      3.173
REMARK SMILES CCCC=CC(=O)O
REMARK SMILES IDX 4 1 5 2 3 3 2 4 1 5 6 6 7 7 8 8
REMARK H PARENT 8 9
ROOT
ATOM      1  C   UNL     1       4.498  -0.566 -26.195  1.00  0.00    -0.019 C 
ATOM      2  C   UNL     1       5.733  -0.040 -26.211  1.00  0.00     0.089 C 
ENDROOT
BRANCH   1   3
ATOM      3  C   UNL     1       3.881  -1.226 -24.996  1.00  0.00     0.027 C 
BRANCH   3   4
ATOM      4  C   UNL     1       4.950  -1.681 -24.002  1.00  0.00     0.001 C 
ATOM      5  C   UNL     1       4.369  -2.610 -22.948  1.00  0.00     0.004 C 
ENDBRANCH   3   4
ENDBRANCH   1   3
BRANCH   2   6
ATOM      6  C   UNL     1       6.251   0.595 -27.442  1.00  0.00     0.327 C 
ATOM      7  O   UNL     1       5.895   0.311 -28.572  1.00  0.00    -0.247 OA
BRANCH   6   8
ATOM      8  O   UNL     1       7.173   1.540 -27.173  1.00  0.00    -0.478 OA
ATOM      9  H   UNL     1       6.945   2.157 -26.455  1.00  0.00     0.297 HD
ENDBRANCH   6   8
ENDBRANCH   2   6
TORSDOF 4
ENDMDL
MODEL 6
REMARK VINA RESULT:      -5.9      2.709      4.896
REMARK SMILES CCCC=CC(=O)O
REMARK SMILES IDX 4 1 5 2 3 3 2 4 1 5 6 6 7 7 8 8
REMARK H PARENT 8 9
ROOT
ATOM      1  C   UNL     1       5.073  -0.208 -26.188  1.00  0.00    -0.019 C 
ATOM      2  C   UNL     1       4.849  -0.981 -25.113  1.00  0.00     0.089 C 
ENDROOT
BRANCH   1   3
ATOM      3  C   UNL     1       6.418  -0.032 -26.832  1.00  0.00     0.027 C 
BRANCH   3   4
ATOM      4  C   UNL     1       6.340   0.915 -28.029  1.00  0.00     0.001 C 
ATOM      5  C   UNL     1       5.926   0.179 -29.293  1.00  0.00     0.004 C 
ENDBRANCH   3   4
ENDBRANCH   1   3
BRANCH   2   6
ATOM      6  C   UNL     1       3.484  -1.094 -24.555  1.00  0.00     0.327 C 
ATOM      7  O   UNL     1       3.156  -1.867 -23.673  1.00  0.00    -0.247 OA
BRANCH   6   8
ATOM      8  O   UNL     1       2.628  -0.232 -25.140  1.00  0.00    -0.478 OA
ATOM      9  H   UNL     1       1.686  -0.467 -25.074  1.00  0.00     0.297 HD
ENDBRANCH   6   8
ENDBRANCH   2   6
TORSDOF 4
ENDMDL
MODEL 7
REMARK VINA RESULT:      -5.8      4.576      5.890
REMARK SMILES CCCC=CC(=O)O
REMARK SMILES IDX 4 1 5 2 3 3 2 4 1 5 6 6 7 7 8 8
REMARK H PARENT 8 9
ROOT
ATOM      1  C   UNL     1       6.528  -2.646 -20.113  1.00  0.00    -0.019 C 
ATOM      2  C   UNL     1       6.600  -1.369 -19.705  1.00  0.00     0.089 C 
ENDROOT
BRANCH   1   3
ATOM      3  C   UNL     1       5.650  -3.122 -21.234  1.00  0.00     0.027 C 
BRANCH   3   4
ATOM      4  C   UNL     1       5.353  -1.994 -22.223  1.00  0.00     0.001 C 
ATOM      5  C   UNL     1       4.333  -2.423 -23.265  1.00  0.00     0.004 C 
ENDBRANCH   3   4
ENDBRANCH   1   3
BRANCH   2   6
ATOM      6  C   UNL     1       7.501  -0.998 -18.592  1.00  0.00     0.327 C 
ATOM      7  O   UNL     1       8.376  -0.154 -18.659  1.00  0.00    -0.247 OA
BRANCH   6   8
ATOM      8  O   UNL     1       7.240  -1.708 -17.475  1.00  0.00    -0.478 OA
ATOM      9  H   UNL     1       7.621  -1.351 -16.654  1.00  0.00     0.297 HD
ENDBRANCH   6   8
ENDBRANCH   2   6
TORSDOF 4
ENDMDL
MODEL 8
REMARK VINA RESULT:      -5.5     12.371     13.192
REMARK SMILES CCCC=CC(=O)O
REMARK SMILES IDX 4 1 5 2 3 3 2 4 1 5 6 6 7 7 8 8
REMARK H PARENT 8 9
ROOT
ATOM      1  C   UNL     1      -4.023 -10.119 -27.437  1.00  0.00    -0.019 C 
ATOM      2  C   UNL     1      -5.145  -9.900 -26.733  1.00  0.00     0.089 C 
ENDROOT
BRANCH   1   3
ATOM      3  C   UNL     1      -3.138  -9.030 -27.968  1.00  0.00     0.027 C 
BRANCH   3   4
ATOM      4  C   UNL     1      -1.661  -9.356 -27.743  1.00  0.00     0.001 C 
ATOM      5  C   UNL     1      -1.191  -8.888 -26.375  1.00  0.00     0.004 C 
ENDBRANCH   3   4
ENDBRANCH   1   3
BRANCH   2   6
ATOM      6  C   UNL     1      -5.949 -11.043 -26.248  1.00  0.00     0.327 C 
ATOM      7  O   UNL     1      -6.053 -11.372 -25.080  1.00  0.00    -0.247 OA
BRANCH   6   8
ATOM      8  O   UNL     1      -6.565 -11.691 -27.257  1.00  0.00    -0.478 OA
ATOM      9  H   UNL     1      -6.025 -12.354 -27.721  1.00  0.00     0.297 HD
ENDBRANCH   6   8
ENDBRANCH   2   6
TORSDOF 4
ENDMDL
MODEL 9
REMARK VINA RESULT:      -5.2     10.726     11.613
REMARK SMILES CCCC=CC(=O)O
REMARK SMILES IDX 4 1 5 2 3 3 2 4 1 5 6 6 7 7 8 8
REMARK H PARENT 8 9
ROOT
ATOM      1  C   UNL     1      -1.946  -9.110 -27.685  1.00  0.00    -0.019 C 
ATOM      2  C   UNL     1      -1.345  -9.988 -26.866  1.00  0.00     0.089 C 
ENDROOT
BRANCH   1   3
ATOM      3  C   UNL     1      -3.391  -9.188 -28.085  1.00  0.00     0.027 C 
BRANCH   3   4
ATOM      4  C   UNL     1      -4.096 -10.355 -27.394  1.00  0.00     0.001 C 
ATOM      5  C   UNL     1      -5.342  -9.892 -26.655  1.00  0.00     0.004 C 
ENDBRANCH   3   4
ENDBRANCH   1   3
BRANCH   2   6
ATOM      6  C   UNL     1       0.085  -9.823 -26.526  1.00  0.00     0.327 C 
ATOM      7  O   UNL     1       0.640 -10.355 -25.582  1.00  0.00    -0.247 OA
BRANCH   6   8
ATOM      8  O   UNL     1       0.717  -9.006 -27.393  1.00  0.00    -0.478 OA
ATOM      9  H   UNL     1       1.582  -8.670 -27.098  1.00  0.00     0.297 HD
ENDBRANCH   6   8
ENDBRANCH   2   6
TORSDOF 4
ENDMDL
MODEL 10
REMARK VINA RESULT:      -5.2      5.098      6.613
REMARK SMILES CCCC=CC(=O)O
REMARK SMILES IDX 4 1 5 2 3 3 2 4 1 5 6 6 7 7 8 8
REMARK H PARENT 8 9
ROOT
ATOM      1  C   UNL     1       6.824  -1.579 -19.355  1.00  0.00    -0.019 C 
ATOM      2  C   UNL     1       7.855  -1.018 -18.702  1.00  0.00     0.089 C 
ENDROOT
BRANCH   1   3
ATOM      3  C   UNL     1       6.975  -2.583 -20.461  1.00  0.00     0.027 C 
BRANCH   3   4
ATOM      4  C   UNL     1       5.616  -2.977 -21.042  1.00  0.00     0.001 C 
ATOM      5  C   UNL     1       5.256  -2.119 -22.244  1.00  0.00     0.004 C 
ENDBRANCH   3   4
ENDBRANCH   1   3
BRANCH   2   6
ATOM      6  C   UNL     1       7.601  -0.041 -17.621  1.00  0.00     0.327 C 
ATOM      7  O   UNL     1       6.763  -0.174 -16.747  1.00  0.00    -0.247 OA
BRANCH   6   8
ATOM      8  O   UNL     1       8.416   1.029 -17.709  1.00  0.00    -0.478 OA
ATOM      9  H   UNL     1       7.994   1.891 -17.545  1.00  0.00     0.297 HD
ENDBRANCH   6   8
ENDBRANCH   2   6
TORSDOF 4
ENDMDL
