MODEL 1
REMARK VINA RESULT:      -6.6      0.000      0.000
REMARK SMILES CCCC[C@@H](C)C(=O)O
REMARK SMILES IDX 4 1 3 2 2 3 1 4 5 5 6 6 7 7 8 8 9 9
REMARK H PARENT 9 10
ROOT
ATOM      1  C   UNL     1       5.229  -0.264 -25.478  1.00  0.00     0.015 C 
ENDROOT
BRANCH   1   2
ATOM      2  C   UNL     1       5.244  -0.360 -27.007  1.00  0.00     0.001 C 
BRANCH   2   3
ATOM      3  C   UNL     1       6.581   0.114 -27.578  1.00  0.00    -0.003 C 
ATOM      4  C   UNL     1       6.979   1.469 -27.015  1.00  0.00     0.004 C 
ENDBRANCH   2   3
ENDBRANCH   1   2
BRANCH   1   5
ATOM      5  C   UNL     1       4.525  -1.448 -24.801  1.00  0.00     0.096 C 
ATOM      6  C   UNL     1       5.193  -1.869 -23.491  1.00  0.00     0.020 C 
BRANCH   5   7
ATOM      7  C   UNL     1       3.074  -1.075 -24.541  1.00  0.00     0.306 C 
ATOM      8  O   UNL     1       2.298  -1.719 -23.853  1.00  0.00    -0.252 OA
BRANCH   7   9
ATOM      9  O   UNL     1       2.712   0.086 -25.137  1.00  0.00    -0.481 OA
ATOM     10  H   UNL     1       3.174   0.872 -24.791  1.00  0.00     0.296 HD
ENDBRANCH   7   9
ENDBRANCH   5   7
ENDBRANCH   1   5
TORSDOF 5
ENDMDL
MODEL 2
REMARK VINA RESULT:      -6.5      1.446      3.830
REMARK SMILES CCCC[C@@H](C)C(=O)O
REMARK SMILES IDX 4 1 3 2 2 3 1 4 5 5 6 6 7 7 8 8 9 9
REMARK H PARENT 9 10
ROOT
ATOM      1  C   UNL     1       5.496  -1.422 -24.050  1.00  0.00     0.015 C 
ENDROOT
BRANCH   1   2
ATOM      2  C   UNL     1       4.405  -2.153 -23.262  1.00  0.00     0.001 C 
BRANCH   2   3
ATOM      3  C   UNL     1       4.988  -2.872 -22.045  1.00  0.00    -0.003 C 
ATOM      4  C   UNL     1       5.851  -1.941 -21.208  1.00  0.00     0.004 C 
ENDBRANCH   2   3
ENDBRANCH   1   2
BRANCH   1   5
ATOM      5  C   UNL     1       4.943  -0.380 -25.033  1.00  0.00     0.096 C 
ATOM      6  C   UNL     1       5.909  -0.066 -26.175  1.00  0.00     0.020 C 
BRANCH   5   7
ATOM      7  C   UNL     1       3.627  -0.888 -25.598  1.00  0.00     0.306 C 
ATOM      8  O   UNL     1       3.516  -1.798 -26.404  1.00  0.00    -0.252 OA
BRANCH   7   9
ATOM      9  O   UNL     1       2.550  -0.238 -25.096  1.00  0.00    -0.481 OA
ATOM     10  H   UNL     1       1.738  -0.343 -25.627  1.00  0.00     0.296 HD
ENDBRANCH   7   9
ENDBRANCH   5   7
ENDBRANCH   1   5
TORSDOF 5
ENDMDL
MODEL 3
REMARK VINA RESULT:      -6.0      2.259      4.271
REMARK SMILES CCCC[C@@H](C)C(=O)O
REMARK SMILES IDX 4 1 3 2 2 3 1 4 5 5 6 6 7 7 8 8 9 9
REMARK H PARENT 9 10
ROOT
ATOM      1  C   UNL     1       5.153  -1.563 -24.003  1.00  0.00     0.015 C 
ENDROOT
BRANCH   1   2
ATOM      2  C   UNL     1       4.344  -2.442 -23.043  1.00  0.00     0.001 C 
BRANCH   2   3
ATOM      3  C   UNL     1       5.212  -2.948 -21.891  1.00  0.00    -0.003 C 
ATOM      4  C   UNL     1       5.894  -1.801 -21.162  1.00  0.00     0.004 C 
ENDBRANCH   2   3
ENDBRANCH   1   2
BRANCH   1   5
ATOM      5  C   UNL     1       4.440  -1.302 -25.337  1.00  0.00     0.096 C 
ATOM      6  C   UNL     1       2.994  -0.836 -25.159  1.00  0.00     0.020 C 
BRANCH   5   7
ATOM      7  C   UNL     1       5.223  -0.260 -26.118  1.00  0.00     0.306 C 
ATOM      8  O   UNL     1       5.934   0.599 -25.620  1.00  0.00    -0.252 OA
BRANCH   7   9
ATOM      9  O   UNL     1       5.080  -0.387 -27.459  1.00  0.00    -0.481 OA
ATOM     10  H   UNL     1       4.690  -1.236 -27.739  1.00  0.00     0.296 HD
ENDBRANCH   7   9
ENDBRANCH   5   7
ENDBRANCH   1   5
TORSDOF 5
ENDMDL
MODEL 4
REMARK VINA RESULT:      -6.0      5.598      7.204
REMARK SMILES CCCC[C@@H](C)C(=O)O
REMARK SMILES IDX 4 1 3 2 2 3 1 4 5 5 6 6 7 7 8 8 9 9
REMARK H PARENT 9 10
ROOT
ATOM      1  C   UNL     1       6.506  -2.242 -19.522  1.00  0.00     0.015 C 
ENDROOT
BRANCH   1   2
ATOM      2  C   UNL     1       6.079  -1.675 -20.880  1.00  0.00     0.001 C 
BRANCH   2   3
ATOM      3  C   UNL     1       5.366  -2.734 -21.722  1.00  0.00    -0.003 C 
ATOM      4  C   UNL     1       4.785  -2.137 -22.994  1.00  0.00     0.004 C 
ENDBRANCH   2   3
ENDBRANCH   1   2
BRANCH   1   5
ATOM      5  C   UNL     1       6.583  -1.179 -18.417  1.00  0.00     0.096 C 
ATOM      6  C   UNL     1       6.160  -1.712 -17.048  1.00  0.00     0.020 C 
BRANCH   5   7
ATOM      7  C   UNL     1       8.005  -0.647 -18.344  1.00  0.00     0.306 C 
ATOM      8  O   UNL     1       8.320   0.453 -17.918  1.00  0.00    -0.252 OA
BRANCH   7   9
ATOM      9  O   UNL     1       8.925  -1.537 -18.786  1.00  0.00    -0.481 OA
ATOM     10  H   UNL     1       9.402  -1.253 -19.588  1.00  0.00     0.296 HD
ENDBRANCH   7   9
ENDBRANCH   5   7
ENDBRANCH   1   5
TORSDOF 5
ENDMDL
MODEL 5
REMARK VINA RESULT:      -6.0      4.718      6.409
REMARK SMILES CCCC[C@@H](C)C(=O)O
REMARK SMILES IDX 4 1 3 2 2 3 1 4 5 5 6 6 7 7 8 8 9 9
REMARK H PARENT 9 10
ROOT
ATOM      1  C   UNL     1       5.890  -1.681 -20.491  1.00  0.00     0.015 C 
ENDROOT
BRANCH   1   2
ATOM      2  C   UNL     1       5.864  -2.696 -21.638  1.00  0.00     0.001 C 
BRANCH   2   3
ATOM      3  C   UNL     1       4.641  -2.490 -22.532  1.00  0.00    -0.003 C 
ATOM      4  C   UNL     1       5.005  -1.753 -23.812  1.00  0.00     0.004 C 
ENDBRANCH   2   3
ENDBRANCH   1   2
BRANCH   1   5
ATOM      5  C   UNL     1       6.981  -1.969 -19.449  1.00  0.00     0.096 C 
ATOM      6  C   UNL     1       7.752  -0.716 -19.032  1.00  0.00     0.020 C 
BRANCH   5   7
ATOM      7  C   UNL     1       6.339  -2.606 -18.228  1.00  0.00     0.306 C 
ATOM      8  O   UNL     1       6.009  -2.006 -17.217  1.00  0.00    -0.252 OA
BRANCH   7   9
ATOM      9  O   UNL     1       6.135  -3.937 -18.372  1.00  0.00    -0.481 OA
ATOM     10  H   UNL     1       5.436  -4.298 -17.794  1.00  0.00     0.296 HD
ENDBRANCH   7   9
ENDBRANCH   5   7
ENDBRANCH   1   5
TORSDOF 5
ENDMDL
MODEL 6
REMARK VINA RESULT:      -5.7      5.737      7.425
REMARK SMILES CCCC[C@@H](C)C(=O)O
REMARK SMILES IDX 4 1 3 2 2 3 1 4 5 5 6 6 7 7 8 8 9 9
REMARK H PARENT 9 10
ROOT
ATOM      1  C   UNL     1       6.693  -1.352 -19.635  1.00  0.00     0.015 C 
ENDROOT
BRANCH   1   2
ATOM      2  C   UNL     1       6.837  -2.723 -20.303  1.00  0.00     0.001 C 
BRANCH   2   3
ATOM      3  C   UNL     1       5.596  -3.072 -21.124  1.00  0.00    -0.003 C 
ATOM      4  C   UNL     1       5.347  -2.049 -22.221  1.00  0.00     0.004 C 
ENDBRANCH   2   3
ENDBRANCH   1   2
BRANCH   1   5
ATOM      5  C   UNL     1       7.564  -1.192 -18.381  1.00  0.00     0.096 C 
ATOM      6  C   UNL     1       8.342   0.124 -18.359  1.00  0.00     0.020 C 
BRANCH   5   7
ATOM      7  C   UNL     1       6.677  -1.285 -17.150  1.00  0.00     0.306 C 
ATOM      8  O   UNL     1       5.927  -2.214 -16.897  1.00  0.00    -0.252 OA
BRANCH   7   9
ATOM      9  O   UNL     1       6.813  -0.224 -16.319  1.00  0.00    -0.481 OA
ATOM     10  H   UNL     1       6.191  -0.224 -15.568  1.00  0.00     0.296 HD
ENDBRANCH   7   9
ENDBRANCH   5   7
ENDBRANCH   1   5
TORSDOF 5
ENDMDL
MODEL 7
REMARK VINA RESULT:      -5.6      2.893      3.770
REMARK SMILES CCCC[C@@H](C)C(=O)O
REMARK SMILES IDX 4 1 3 2 2 3 1 4 5 5 6 6 7 7 8 8 9 9
REMARK H PARENT 9 10
ROOT
ATOM      1  C   UNL     1       5.410  -1.584 -23.446  1.00  0.00     0.015 C 
ENDROOT
BRANCH   1   2
ATOM      2  C   UNL     1       4.528  -1.736 -24.688  1.00  0.00     0.001 C 
BRANCH   2   3
ATOM      3  C   UNL     1       4.347  -0.399 -25.407  1.00  0.00    -0.003 C 
ATOM      4  C   UNL     1       5.503  -0.114 -26.353  1.00  0.00     0.004 C 
ENDBRANCH   2   3
ENDBRANCH   1   2
BRANCH   1   5
ATOM      5  C   UNL     1       4.812  -2.236 -22.191  1.00  0.00     0.096 C 
ATOM      6  C   UNL     1       4.093  -3.552 -22.488  1.00  0.00     0.020 C 
BRANCH   5   7
ATOM      7  C   UNL     1       5.925  -2.475 -21.183  1.00  0.00     0.306 C 
ATOM      8  O   UNL     1       6.479  -3.547 -20.994  1.00  0.00    -0.252 OA
BRANCH   7   9
ATOM      9  O   UNL     1       6.277  -1.355 -20.509  1.00  0.00    -0.481 OA
ATOM     10  H   UNL     1       6.607  -1.521 -19.606  1.00  0.00     0.296 HD
ENDBRANCH   7   9
ENDBRANCH   5   7
ENDBRANCH   1   5
TORSDOF 5
ENDMDL
MODEL 8
REMARK VINA RESULT:      -5.6     10.481     12.020
REMARK SMILES CCCC[C@@H](C)C(=O)O
REMARK SMILES IDX 4 1 3 2 2 3 1 4 5 5 6 6 7 7 8 8 9 9
REMARK H PARENT 9 10
ROOT
ATOM      1  C   UNL     1      -1.913  -8.935 -27.591  1.00  0.00     0.015 C 
ENDROOT
BRANCH   1   2
ATOM      2  C   UNL     1      -3.304  -9.222 -28.162  1.00  0.00     0.001 C 
BRANCH   2   3
ATOM      3  C   UNL     1      -4.385  -9.071 -27.091  1.00  0.00    -0.003 C 
ATOM      4  C   UNL     1      -5.100 -10.387 -26.831  1.00  0.00     0.004 C 
ENDBRANCH   2   3
ENDBRANCH   1   2
BRANCH   1   5
ATOM      5  C   UNL     1      -1.269 -10.154 -26.915  1.00  0.00     0.096 C 
ATOM      6  C   UNL     1      -1.328 -11.415 -27.779  1.00  0.00     0.020 C 
BRANCH   5   7
ATOM      7  C   UNL     1       0.178  -9.826 -26.584  1.00  0.00     0.306 C 
ATOM      8  O   UNL     1       0.789 -10.257 -25.618  1.00  0.00    -0.252 OA
BRANCH   7   9
ATOM      9  O   UNL     1       0.756  -9.007 -27.494  1.00  0.00    -0.481 OA
ATOM     10  H   UNL     1       1.633  -8.673 -27.229  1.00  0.00     0.296 HD
ENDBRANCH   7   9
ENDBRANCH   5   7
ENDBRANCH   1   5
TORSDOF 5
ENDMDL
MODEL 9
REMARK VINA RESULT:      -5.4     11.105     12.741
REMARK SMILES CCCC[C@@H](C)C(=O)O
REMARK SMILES IDX 4 1 3 2 2 3 1 4 5 5 6 6 7 7 8 8 9 9
REMARK H PARENT 9 10
ROOT
ATOM      1  C   UNL     1      -2.779 -10.443 -27.628  1.00  0.00     0.015 C 
ENDROOT
BRANCH   1   2
ATOM      2  C   UNL     1      -3.742  -9.295 -27.944  1.00  0.00     0.001 C 
BRANCH   2   3
ATOM      3  C   UNL     1      -4.944  -9.303 -26.999  1.00  0.00    -0.003 C 
ATOM      4  C   UNL     1      -5.327 -10.719 -26.598  1.00  0.00     0.004 C 
ENDBRANCH   2   3
ENDBRANCH   1   2
BRANCH   1   5
ATOM      5  C   UNL     1      -1.328  -9.983 -27.428  1.00  0.00     0.096 C 
ATOM      6  C   UNL     1      -1.187  -8.906 -26.352  1.00  0.00     0.020 C 
BRANCH   5   7
ATOM      7  C   UNL     1      -0.475 -11.187 -27.065  1.00  0.00     0.306 C 
ATOM      8  O   UNL     1       0.415 -11.188 -26.229  1.00  0.00    -0.252 OA
BRANCH   7   9
ATOM      9  O   UNL     1      -0.817 -12.303 -27.752  1.00  0.00    -0.481 OA
ATOM     10  H   UNL     1      -0.839 -12.183 -28.720  1.00  0.00     0.296 HD
ENDBRANCH   7   9
ENDBRANCH   5   7
ENDBRANCH   1   5
TORSDOF 5
ENDMDL
MODEL 10
REMARK VINA RESULT:      -5.4      1.731      2.202
REMARK SMILES CCCC[C@@H](C)C(=O)O
REMARK SMILES IDX 4 1 3 2 2 3 1 4 5 5 6 6 7 7 8 8 9 9
REMARK H PARENT 9 10
ROOT
ATOM      1  C   UNL     1       5.397  -0.929 -25.189  1.00  0.00     0.015 C 
ENDROOT
BRANCH   1   2
ATOM      2  C   UNL     1       5.034  -0.243 -26.509  1.00  0.00     0.001 C 
BRANCH   2   3
ATOM      3  C   UNL     1       6.279   0.298 -27.212  1.00  0.00    -0.003 C 
ATOM      4  C   UNL     1       6.002   0.610 -28.675  1.00  0.00     0.004 C 
ENDBRANCH   2   3
ENDBRANCH   1   2
BRANCH   1   5
ATOM      5  C   UNL     1       4.203  -1.085 -24.235  1.00  0.00     0.096 C 
ATOM      6  C   UNL     1       2.892  -1.377 -24.965  1.00  0.00     0.020 C 
BRANCH   5   7
ATOM      7  C   UNL     1       4.503  -2.202 -23.250  1.00  0.00     0.306 C 
ATOM      8  O   UNL     1       4.002  -3.315 -23.280  1.00  0.00    -0.252 OA
BRANCH   7   9
ATOM      9  O   UNL     1       5.423  -1.853 -22.319  1.00  0.00    -0.481 OA
ATOM     10  H   UNL     1       6.345  -2.037 -22.582  1.00  0.00     0.296 HD
ENDBRANCH   7   9
ENDBRANCH   5   7
ENDBRANCH   1   5
TORSDOF 5
ENDMDL
