MODEL 1
REMARK VINA RESULT:      -5.8      0.000      0.000
REMARK SMILES Nc1ccccc1C(=O)O
REMARK SMILES IDX 5 1 4 2 3 3 2 4 7 5 6 6 8 7 9 8 10 9 1 11
REMARK H PARENT 10 10 1 12 1 13
ROOT
ATOM      1  C   UNL     1      -3.371  -8.443 -27.012  1.00  0.00     0.001 A 
ATOM      2  C   UNL     1      -3.909  -9.585 -27.599  1.00  0.00     0.002 A 
ATOM      3  C   UNL     1      -3.082 -10.663 -27.927  1.00  0.00     0.026 A 
ATOM      4  C   UNL     1      -1.712 -10.632 -27.639  1.00  0.00     0.046 A 
ATOM      5  C   UNL     1      -1.164  -9.439 -27.125  1.00  0.00     0.082 A 
ATOM      6  C   UNL     1      -1.999  -8.366 -26.783  1.00  0.00     0.018 A 
ENDROOT
BRANCH   5   7
ATOM      7  C   UNL     1       0.299  -9.239 -26.941  1.00  0.00     0.337 C 
ATOM      8  O   UNL     1       0.936  -8.377 -27.522  1.00  0.00    -0.246 OA
BRANCH   7   9
ATOM      9  O   UNL     1       0.864 -10.145 -26.112  1.00  0.00    -0.478 OA
ATOM     10  H   UNL     1       0.495 -11.050 -26.245  1.00  0.00     0.297 HD
ENDBRANCH   7   9
ENDBRANCH   5   7
BRANCH   4  11
ATOM     11  N   UNL     1      -0.903 -11.722 -28.042  1.00  0.00    -0.398 N 
ATOM     12  H   UNL     1      -0.032 -11.414 -28.474  1.00  0.00     0.156 HD
ATOM     13  H   UNL     1      -1.396 -12.334 -28.699  1.00  0.00     0.156 HD
ENDBRANCH   4  11
TORSDOF 3
ENDMDL
MODEL 2
REMARK VINA RESULT:      -5.5      1.773      2.344
REMARK SMILES Nc1ccccc1C(=O)O
REMARK SMILES IDX 5 1 4 2 3 3 2 4 7 5 6 6 8 7 9 8 10 9 1 11
REMARK H PARENT 10 10 1 12 1 13
ROOT
ATOM      1  C   UNL     1      -3.577 -10.363 -27.579  1.00  0.00     0.001 A 
ATOM      2  C   UNL     1      -3.478  -9.035 -27.986  1.00  0.00     0.002 A 
ATOM      3  C   UNL     1      -2.251  -8.370 -27.925  1.00  0.00     0.026 A 
ATOM      4  C   UNL     1      -1.095  -9.032 -27.493  1.00  0.00     0.046 A 
ATOM      5  C   UNL     1      -1.222 -10.347 -27.001  1.00  0.00     0.082 A 
ATOM      6  C   UNL     1      -2.452 -11.017 -27.079  1.00  0.00     0.018 A 
ENDROOT
BRANCH   5   7
ATOM      7  C   UNL     1      -0.095 -11.081 -26.364  1.00  0.00     0.337 C 
ATOM      8  O   UNL     1       0.344 -12.135 -26.790  1.00  0.00    -0.246 OA
BRANCH   7   9
ATOM      9  O   UNL     1       0.356 -10.493 -25.233  1.00  0.00    -0.478 OA
ATOM     10  H   UNL     1      -0.295 -10.561 -24.496  1.00  0.00     0.297 HD
ENDBRANCH   7   9
ENDBRANCH   5   7
BRANCH   4  11
ATOM     11  N   UNL     1       0.114  -8.303 -27.391  1.00  0.00    -0.398 N 
ATOM     12  H   UNL     1       0.930  -8.883 -27.584  1.00  0.00     0.156 HD
ATOM     13  H   UNL     1       0.223  -7.882 -26.463  1.00  0.00     0.156 HD
ENDBRANCH   4  11
TORSDOF 3
ENDMDL
MODEL 3
REMARK VINA RESULT:      -5.4     12.833     13.966
REMARK SMILES Nc1ccccc1C(=O)O
REMARK SMILES IDX 5 1 4 2 3 3 2 4 7 5 6 6 8 7 9 8 10 9 1 11
REMARK H PARENT 10 10 1 12 1 13
ROOT
ATOM      1  C   UNL     1      -6.930   1.418 -32.582  1.00  0.00     0.001 A 
ATOM      2  C   UNL     1      -6.478   0.335 -31.834  1.00  0.00     0.002 A 
ATOM      3  C   UNL     1      -7.358  -0.690 -31.477  1.00  0.00     0.026 A 
ATOM      4  C   UNL     1      -8.695  -0.667 -31.894  1.00  0.00     0.046 A 
ATOM      5  C   UNL     1      -9.163   0.475 -32.576  1.00  0.00     0.082 A 
ATOM      6  C   UNL     1      -8.273   1.493 -32.947  1.00  0.00     0.018 A 
ENDROOT
BRANCH   5   7
ATOM      7  C   UNL     1     -10.597   0.677 -32.916  1.00  0.00     0.337 C 
ATOM      8  O   UNL     1     -11.377  -0.241 -33.106  1.00  0.00    -0.246 OA
BRANCH   7   9
ATOM      9  O   UNL     1     -10.938   1.979 -33.050  1.00  0.00    -0.478 OA
ATOM     10  H   UNL     1     -11.437   2.147 -33.883  1.00  0.00     0.297 HD
ENDBRANCH   7   9
ENDBRANCH   5   7
BRANCH   4  11
ATOM     11  N   UNL     1      -9.565  -1.696 -31.460  1.00  0.00    -0.398 N 
ATOM     12  H   UNL     1      -9.192  -2.624 -31.657  1.00  0.00     0.156 HD
ATOM     13  H   UNL     1     -10.490  -1.615 -31.896  1.00  0.00     0.156 HD
ENDBRANCH   4  11
TORSDOF 3
ENDMDL
MODEL 4
REMARK VINA RESULT:      -5.4      2.842      3.724
REMARK SMILES Nc1ccccc1C(=O)O
REMARK SMILES IDX 5 1 4 2 3 3 2 4 7 5 6 6 8 7 9 8 10 9 1 11
REMARK H PARENT 10 10 1 12 1 13
ROOT
ATOM      1  C   UNL     1      -1.469 -10.927 -27.725  1.00  0.00     0.001 A 
ATOM      2  C   UNL     1      -1.303  -9.659 -27.176  1.00  0.00     0.002 A 
ATOM      3  C   UNL     1      -0.360  -9.448 -26.166  1.00  0.00     0.026 A 
ATOM      4  C   UNL     1       0.458 -10.492 -25.716  1.00  0.00     0.046 A 
ATOM      5  C   UNL     1       0.222 -11.789 -26.217  1.00  0.00     0.082 A 
ATOM      6  C   UNL     1      -0.714 -11.994 -27.241  1.00  0.00     0.018 A 
ENDROOT
BRANCH   5   7
ATOM      7  C   UNL     1       0.915 -12.995 -25.687  1.00  0.00     0.337 C 
ATOM      8  O   UNL     1       1.674 -13.678 -26.353  1.00  0.00    -0.246 OA
BRANCH   7   9
ATOM      9  O   UNL     1       0.575 -13.292 -24.413  1.00  0.00    -0.478 OA
ATOM     10  H   UNL     1       0.522 -12.487 -23.847  1.00  0.00     0.297 HD
ENDBRANCH   7   9
ENDBRANCH   5   7
BRANCH   4  11
ATOM     11  N   UNL     1       1.358 -10.248 -24.651  1.00  0.00    -0.398 N 
ATOM     12  H   UNL     1       2.151  -9.677 -24.942  1.00  0.00     0.156 HD
ATOM     13  H   UNL     1       1.712 -11.122 -24.250  1.00  0.00     0.156 HD
ENDBRANCH   4  11
TORSDOF 3
ENDMDL
MODEL 5
REMARK VINA RESULT:      -5.2     14.157     15.283
REMARK SMILES Nc1ccccc1C(=O)O
REMARK SMILES IDX 5 1 4 2 3 3 2 4 7 5 6 6 8 7 9 8 10 9 1 11
REMARK H PARENT 10 10 1 12 1 13
ROOT
ATOM      1  C   UNL     1       6.886  -2.205 -20.077  1.00  0.00     0.001 A 
ATOM      2  C   UNL     1       6.158  -3.155 -19.366  1.00  0.00     0.002 A 
ATOM      3  C   UNL     1       5.885  -2.962 -18.008  1.00  0.00     0.026 A 
ATOM      4  C   UNL     1       6.302  -1.798 -17.350  1.00  0.00     0.046 A 
ATOM      5  C   UNL     1       7.112  -0.884 -18.056  1.00  0.00     0.082 A 
ATOM      6  C   UNL     1       7.369  -1.074 -19.422  1.00  0.00     0.018 A 
ENDROOT
BRANCH   5   7
ATOM      7  C   UNL     1       7.746   0.295 -17.409  1.00  0.00     0.337 C 
ATOM      8  O   UNL     1       8.953   0.466 -17.363  1.00  0.00    -0.246 OA
BRANCH   7   9
ATOM      9  O   UNL     1       6.857   1.130 -16.825  1.00  0.00    -0.478 OA
ATOM     10  H   UNL     1       7.289   1.741 -16.184  1.00  0.00     0.297 HD
ENDBRANCH   7   9
ENDBRANCH   5   7
BRANCH   4  11
ATOM     11  N   UNL     1       6.056  -1.671 -15.962  1.00  0.00    -0.398 N 
ATOM     12  H   UNL     1       5.082  -1.860 -15.726  1.00  0.00     0.156 HD
ATOM     13  H   UNL     1       6.300  -0.735 -15.621  1.00  0.00     0.156 HD
ENDBRANCH   4  11
TORSDOF 3
ENDMDL
MODEL 6
REMARK VINA RESULT:      -5.2      2.771      3.894
REMARK SMILES Nc1ccccc1C(=O)O
REMARK SMILES IDX 5 1 4 2 3 3 2 4 7 5 6 6 8 7 9 8 10 9 1 11
REMARK H PARENT 10 10 1 12 1 13
ROOT
ATOM      1  C   UNL     1      -0.337 -12.166 -27.192  1.00  0.00     0.001 A 
ATOM      2  C   UNL     1       0.410 -11.463 -26.252  1.00  0.00     0.002 A 
ATOM      3  C   UNL     1       0.007 -10.189 -25.842  1.00  0.00     0.026 A 
ATOM      4  C   UNL     1      -1.171  -9.615 -26.337  1.00  0.00     0.046 A 
ATOM      5  C   UNL     1      -1.873 -10.297 -27.352  1.00  0.00     0.082 A 
ATOM      6  C   UNL     1      -1.473 -11.582 -27.748  1.00  0.00     0.018 A 
ENDROOT
BRANCH   5   7
ATOM      7  C   UNL     1      -3.036  -9.704 -28.064  1.00  0.00     0.337 C 
ATOM      8  O   UNL     1      -2.964  -8.690 -28.738  1.00  0.00    -0.246 OA
BRANCH   7   9
ATOM      9  O   UNL     1      -4.194 -10.366 -27.844  1.00  0.00    -0.478 OA
ATOM     10  H   UNL     1      -4.059 -11.341 -27.797  1.00  0.00     0.297 HD
ENDBRANCH   7   9
ENDBRANCH   5   7
BRANCH   4  11
ATOM     11  N   UNL     1      -1.510  -8.299 -25.939  1.00  0.00    -0.398 N 
ATOM     12  H   UNL     1      -2.257  -7.905 -26.512  1.00  0.00     0.156 HD
ATOM     13  H   UNL     1      -0.700  -7.673 -25.981  1.00  0.00     0.156 HD
ENDBRANCH   4  11
TORSDOF 3
ENDMDL
MODEL 7
REMARK VINA RESULT:      -5.2      9.058      9.958
REMARK SMILES Nc1ccccc1C(=O)O
REMARK SMILES IDX 5 1 4 2 3 3 2 4 7 5 6 6 8 7 9 8 10 9 1 11
REMARK H PARENT 10 10 1 12 1 13
ROOT
ATOM      1  C   UNL     1      -2.509  -0.728 -29.278  1.00  0.00     0.001 A 
ATOM      2  C   UNL     1      -2.202   0.483 -28.665  1.00  0.00     0.002 A 
ATOM      3  C   UNL     1      -2.868   0.870 -27.498  1.00  0.00     0.026 A 
ATOM      4  C   UNL     1      -3.824   0.036 -26.906  1.00  0.00     0.046 A 
ATOM      5  C   UNL     1      -4.190  -1.147 -27.582  1.00  0.00     0.082 A 
ATOM      6  C   UNL     1      -3.508  -1.539 -28.743  1.00  0.00     0.018 A 
ENDROOT
BRANCH   5   7
ATOM      7  C   UNL     1      -5.309  -2.017 -27.131  1.00  0.00     0.337 C 
ATOM      8  O   UNL     1      -6.149  -2.474 -27.888  1.00  0.00    -0.246 OA
BRANCH   7   9
ATOM      9  O   UNL     1      -5.336  -2.205 -25.793  1.00  0.00    -0.478 OA
ATOM     10  H   UNL     1      -4.706  -2.905 -25.504  1.00  0.00     0.297 HD
ENDBRANCH   7   9
ENDBRANCH   5   7
BRANCH   4  11
ATOM     11  N   UNL     1      -4.516   0.494 -25.759  1.00  0.00    -0.398 N 
ATOM     12  H   UNL     1      -4.845   1.453 -25.866  1.00  0.00     0.156 HD
ATOM     13  H   UNL     1      -3.930   0.438 -24.920  1.00  0.00     0.156 HD
ENDBRANCH   4  11
TORSDOF 3
ENDMDL
MODEL 8
REMARK VINA RESULT:      -5.0      9.555     10.603
REMARK SMILES Nc1ccccc1C(=O)O
REMARK SMILES IDX 5 1 4 2 3 3 2 4 7 5 6 6 8 7 9 8 10 9 1 11
REMARK H PARENT 10 10 1 12 1 13
ROOT
ATOM      1  C   UNL     1      -4.348  -1.882 -28.226  1.00  0.00     0.001 A 
ATOM      2  C   UNL     1      -4.082  -0.943 -27.234  1.00  0.00     0.002 A 
ATOM      3  C   UNL     1      -3.724   0.363 -27.580  1.00  0.00     0.026 A 
ATOM      4  C   UNL     1      -3.665   0.761 -28.921  1.00  0.00     0.046 A 
ATOM      5  C   UNL     1      -3.852  -0.218 -29.918  1.00  0.00     0.082 A 
ATOM      6  C   UNL     1      -4.227  -1.524 -29.567  1.00  0.00     0.018 A 
ENDROOT
BRANCH   5   7
ATOM      7  C   UNL     1      -3.647   0.057 -31.366  1.00  0.00     0.337 C 
ATOM      8  O   UNL     1      -4.198   0.969 -31.959  1.00  0.00    -0.246 OA
BRANCH   7   9
ATOM      9  O   UNL     1      -2.834  -0.838 -31.971  1.00  0.00    -0.478 OA
ATOM     10  H   UNL     1      -1.937  -0.858 -31.563  1.00  0.00     0.297 HD
ENDBRANCH   7   9
ENDBRANCH   5   7
BRANCH   4  11
ATOM     11  N   UNL     1      -3.242   2.077 -29.227  1.00  0.00    -0.398 N 
ATOM     12  H   UNL     1      -4.014   2.743 -29.208  1.00  0.00     0.156 HD
ATOM     13  H   UNL     1      -2.792   2.122 -30.147  1.00  0.00     0.156 HD
ENDBRANCH   4  11
TORSDOF 3
ENDMDL
MODEL 9
REMARK VINA RESULT:      -5.0     21.080     21.905
REMARK SMILES Nc1ccccc1C(=O)O
REMARK SMILES IDX 5 1 4 2 3 3 2 4 7 5 6 6 8 7 9 8 10 9 1 11
REMARK H PARENT 10 10 1 12 1 13
ROOT
ATOM      1  C   UNL     1       8.818   9.940 -33.834  1.00  0.00     0.001 A 
ATOM      2  C   UNL     1       8.944   8.615 -34.241  1.00  0.00     0.002 A 
ATOM      3  C   UNL     1       7.806   7.825 -34.429  1.00  0.00     0.026 A 
ATOM      4  C   UNL     1       6.523   8.359 -34.252  1.00  0.00     0.046 A 
ATOM      5  C   UNL     1       6.409   9.675 -33.757  1.00  0.00     0.082 A 
ATOM      6  C   UNL     1       7.553  10.468 -33.585  1.00  0.00     0.018 A 
ENDROOT
BRANCH   5   7
ATOM      7  C   UNL     1       5.105  10.280 -33.374  1.00  0.00     0.337 C 
ATOM      8  O   UNL     1       4.920  10.857 -32.316  1.00  0.00    -0.246 OA
BRANCH   7   9
ATOM      9  O   UNL     1       4.131  10.078 -34.289  1.00  0.00    -0.478 OA
ATOM     10  H   UNL     1       4.497   9.902 -35.187  1.00  0.00     0.297 HD
ENDBRANCH   7   9
ENDBRANCH   5   7
BRANCH   4  11
ATOM     11  N   UNL     1       5.401   7.509 -34.397  1.00  0.00    -0.398 N 
ATOM     12  H   UNL     1       5.247   6.932 -33.570  1.00  0.00     0.156 HD
ATOM     13  H   UNL     1       5.498   6.894 -35.212  1.00  0.00     0.156 HD
ENDBRANCH   4  11
TORSDOF 3
ENDMDL
MODEL 10
REMARK VINA RESULT:      -5.0     10.610     11.568
REMARK SMILES Nc1ccccc1C(=O)O
REMARK SMILES IDX 5 1 4 2 3 3 2 4 7 5 6 6 8 7 9 8 10 9 1 11
REMARK H PARENT 10 10 1 12 1 13
ROOT
ATOM      1  C   UNL     1      -1.952   0.783 -28.081  1.00  0.00     0.001 A 
ATOM      2  C   UNL     1      -2.469   2.051 -27.830  1.00  0.00     0.002 A 
ATOM      3  C   UNL     1      -3.509   2.556 -28.616  1.00  0.00     0.026 A 
ATOM      4  C   UNL     1      -4.074   1.786 -29.640  1.00  0.00     0.046 A 
ATOM      5  C   UNL     1      -3.486   0.540 -29.943  1.00  0.00     0.082 A 
ATOM      6  C   UNL     1      -2.454   0.031 -29.142  1.00  0.00     0.018 A 
ENDROOT
BRANCH   5   7
ATOM      7  C   UNL     1      -3.897  -0.280 -31.114  1.00  0.00     0.337 C 
ATOM      8  O   UNL     1      -5.057  -0.567 -31.357  1.00  0.00    -0.246 OA
BRANCH   7   9
ATOM      9  O   UNL     1      -2.854  -0.724 -31.850  1.00  0.00    -0.478 OA
ATOM     10  H   UNL     1      -2.794  -0.267 -32.721  1.00  0.00     0.297 HD
ENDBRANCH   7   9
ENDBRANCH   5   7
BRANCH   4  11
ATOM     11  N   UNL     1      -5.085   2.359 -30.449  1.00  0.00    -0.398 N 
ATOM     12  H   UNL     1      -4.948   2.154 -31.438  1.00  0.00     0.156 HD
ATOM     13  H   UNL     1      -5.133   3.376 -30.327  1.00  0.00     0.156 HD
ENDBRANCH   4  11
TORSDOF 3
ENDMDL
