MODEL 1
REMARK VINA RESULT:      -5.5      0.000      0.000
REMARK SMILES CC1=CCC[C@@H](C)[C@H]1C
REMARK SMILES IDX 7 1 6 2 5 3 4 4 3 5 2 6 8 7 9 8 1 9
REMARK H PARENT
ROOT
ATOM      1  C   UNL     1      -6.155  -1.443 -28.736  1.00  0.00     0.008 C 
ATOM      2  C   UNL     1      -4.942  -2.065 -28.031  1.00  0.00    -0.007 C 
ATOM      3  C   UNL     1      -4.975  -1.759 -26.526  1.00  0.00     0.008 C 
ATOM      4  C   UNL     1      -4.768  -0.273 -26.235  1.00  0.00     0.027 C 
ATOM      5  C   UNL     1      -3.686   0.342 -27.071  1.00  0.00    -0.028 C 
ATOM      6  C   UNL     1      -3.122  -0.252 -28.140  1.00  0.00    -0.074 C 
ATOM      7  C   UNL     1      -3.570  -1.630 -28.625  1.00  0.00     0.014 C 
ATOM      8  C   UNL     1      -3.557  -1.771 -30.153  1.00  0.00     0.012 C 
ATOM      9  C   UNL     1      -1.974   0.406 -28.858  1.00  0.00     0.039 C 
ENDROOT
TORSDOF 0
ENDMDL
MODEL 2
REMARK VINA RESULT:      -5.3      1.101      3.624
REMARK SMILES CC1=CCC[C@@H](C)[C@H]1C
REMARK SMILES IDX 7 1 6 2 5 3 4 4 3 5 2 6 8 7 9 8 1 9
REMARK H PARENT
ROOT
ATOM      1  C   UNL     1      -4.118   2.010 -28.416  1.00  0.00     0.008 C 
ATOM      2  C   UNL     1      -3.219   1.153 -27.514  1.00  0.00    -0.007 C 
ATOM      3  C   UNL     1      -1.936   0.748 -28.256  1.00  0.00     0.008 C 
ATOM      4  C   UNL     1      -2.217  -0.212 -29.411  1.00  0.00     0.027 C 
ATOM      5  C   UNL     1      -3.210  -1.279 -29.057  1.00  0.00    -0.028 C 
ATOM      6  C   UNL     1      -3.975  -1.266 -27.949  1.00  0.00    -0.074 C 
ATOM      7  C   UNL     1      -3.918  -0.116 -26.944  1.00  0.00     0.014 C 
ATOM      8  C   UNL     1      -5.284   0.228 -26.335  1.00  0.00     0.012 C 
ATOM      9  C   UNL     1      -4.875  -2.431 -27.632  1.00  0.00     0.039 C 
ENDROOT
TORSDOF 0
ENDMDL
MODEL 3
REMARK VINA RESULT:      -5.0      1.326      3.620
REMARK SMILES CC1=CCC[C@@H](C)[C@H]1C
REMARK SMILES IDX 7 1 6 2 5 3 4 4 3 5 2 6 8 7 9 8 1 9
REMARK H PARENT
ROOT
ATOM      1  C   UNL     1      -3.439   0.507 -27.565  1.00  0.00     0.008 C 
ATOM      2  C   UNL     1      -2.963  -0.652 -28.452  1.00  0.00    -0.007 C 
ATOM      3  C   UNL     1      -2.491  -0.131 -29.818  1.00  0.00     0.008 C 
ATOM      4  C   UNL     1      -3.642   0.436 -30.647  1.00  0.00     0.027 C 
ATOM      5  C   UNL     1      -4.879  -0.410 -30.588  1.00  0.00    -0.028 C 
ATOM      6  C   UNL     1      -5.069  -1.416 -29.713  1.00  0.00    -0.074 C 
ATOM      7  C   UNL     1      -4.026  -1.772 -28.656  1.00  0.00     0.014 C 
ATOM      8  C   UNL     1      -4.639  -2.207 -27.318  1.00  0.00     0.012 C 
ATOM      9  C   UNL     1      -6.307  -2.271 -29.795  1.00  0.00     0.039 C 
ENDROOT
TORSDOF 0
ENDMDL
MODEL 4
REMARK VINA RESULT:      -5.0      2.049      3.141
REMARK SMILES CC1=CCC[C@@H](C)[C@H]1C
REMARK SMILES IDX 7 1 6 2 5 3 4 4 3 5 2 6 8 7 9 8 1 9
REMARK H PARENT
ROOT
ATOM      1  C   UNL     1      -3.493  -1.586 -28.843  1.00  0.00     0.008 C 
ATOM      2  C   UNL     1      -2.959  -0.494 -29.781  1.00  0.00    -0.007 C 
ATOM      3  C   UNL     1      -1.780   0.247 -29.134  1.00  0.00     0.008 C 
ATOM      4  C   UNL     1      -2.212   1.070 -27.921  1.00  0.00     0.027 C 
ATOM      5  C   UNL     1      -3.494   1.816 -28.146  1.00  0.00    -0.028 C 
ATOM      6  C   UNL     1      -4.323   1.603 -29.186  1.00  0.00    -0.074 C 
ATOM      7  C   UNL     1      -4.037   0.533 -30.238  1.00  0.00     0.014 C 
ATOM      8  C   UNL     1      -5.301  -0.176 -30.744  1.00  0.00     0.012 C 
ATOM      9  C   UNL     1      -5.540   2.469 -29.377  1.00  0.00     0.039 C 
ENDROOT
TORSDOF 0
ENDMDL
MODEL 5
REMARK VINA RESULT:      -5.0      5.043      7.145
REMARK SMILES CC1=CCC[C@@H](C)[C@H]1C
REMARK SMILES IDX 7 1 6 2 5 3 4 4 3 5 2 6 8 7 9 8 1 9
REMARK H PARENT
ROOT
ATOM      1  C   UNL     1      -7.255   1.490 -32.869  1.00  0.00     0.008 C 
ATOM      2  C   UNL     1      -8.120   0.269 -33.210  1.00  0.00    -0.007 C 
ATOM      3  C   UNL     1      -9.426   0.703 -33.894  1.00  0.00     0.008 C 
ATOM      4  C   UNL     1     -10.344   1.474 -32.946  1.00  0.00     0.027 C 
ATOM      5  C   UNL     1     -10.416   0.865 -31.577  1.00  0.00    -0.028 C 
ATOM      6  C   UNL     1      -9.585  -0.095 -31.129  1.00  0.00    -0.074 C 
ATOM      7  C   UNL     1      -8.445  -0.639 -31.988  1.00  0.00     0.014 C 
ATOM      8  C   UNL     1      -7.179  -0.963 -31.184  1.00  0.00     0.012 C 
ATOM      9  C   UNL     1      -9.798  -0.712 -29.771  1.00  0.00     0.039 C 
ENDROOT
TORSDOF 0
ENDMDL
MODEL 6
REMARK VINA RESULT:      -5.0      5.232      6.911
REMARK SMILES CC1=CCC[C@@H](C)[C@H]1C
REMARK SMILES IDX 7 1 6 2 5 3 4 4 3 5 2 6 8 7 9 8 1 9
REMARK H PARENT
ROOT
ATOM      1  C   UNL     1     -10.296   1.925 -33.019  1.00  0.00     0.008 C 
ATOM      2  C   UNL     1     -10.076   0.427 -33.267  1.00  0.00    -0.007 C 
ATOM      3  C   UNL     1     -10.982  -0.413 -32.354  1.00  0.00     0.008 C 
ATOM      4  C   UNL     1     -10.593  -0.286 -30.881  1.00  0.00     0.027 C 
ATOM      5  C   UNL     1      -9.110  -0.331 -30.662  1.00  0.00    -0.028 C 
ATOM      6  C   UNL     1      -8.194  -0.234 -31.644  1.00  0.00    -0.074 C 
ATOM      7  C   UNL     1      -8.597  -0.033 -33.104  1.00  0.00     0.014 C 
ATOM      8  C   UNL     1      -7.642   0.886 -33.877  1.00  0.00     0.012 C 
ATOM      9  C   UNL     1      -6.728  -0.387 -31.335  1.00  0.00     0.039 C 
ENDROOT
TORSDOF 0
ENDMDL
MODEL 7
REMARK VINA RESULT:      -5.0      1.908      3.491
REMARK SMILES CC1=CCC[C@@H](C)[C@H]1C
REMARK SMILES IDX 7 1 6 2 5 3 4 4 3 5 2 6 8 7 9 8 1 9
REMARK H PARENT
ROOT
ATOM      1  C   UNL     1      -2.023   0.893 -27.879  1.00  0.00     0.008 C 
ATOM      2  C   UNL     1      -3.532   0.612 -27.839  1.00  0.00    -0.007 C 
ATOM      3  C   UNL     1      -3.799  -0.897 -27.723  1.00  0.00     0.008 C 
ATOM      4  C   UNL     1      -3.379  -1.655 -28.982  1.00  0.00     0.027 C 
ATOM      5  C   UNL     1      -3.770  -0.949 -30.247  1.00  0.00    -0.028 C 
ATOM      6  C   UNL     1      -4.207   0.323 -30.303  1.00  0.00    -0.074 C 
ATOM      7  C   UNL     1      -4.317   1.192 -29.052  1.00  0.00     0.014 C 
ATOM      8  C   UNL     1      -3.952   2.662 -29.298  1.00  0.00     0.012 C 
ATOM      9  C   UNL     1      -4.667   0.912 -31.611  1.00  0.00     0.039 C 
ENDROOT
TORSDOF 0
ENDMDL
MODEL 8
REMARK VINA RESULT:      -4.9      4.924      6.504
REMARK SMILES CC1=CCC[C@@H](C)[C@H]1C
REMARK SMILES IDX 7 1 6 2 5 3 4 4 3 5 2 6 8 7 9 8 1 9
REMARK H PARENT
ROOT
ATOM      1  C   UNL     1     -10.520  -0.180 -30.709  1.00  0.00     0.008 C 
ATOM      2  C   UNL     1      -9.980  -0.991 -31.895  1.00  0.00    -0.007 C 
ATOM      3  C   UNL     1      -9.004  -2.074 -31.412  1.00  0.00     0.008 C 
ATOM      4  C   UNL     1      -7.719  -1.477 -30.839  1.00  0.00     0.027 C 
ATOM      5  C   UNL     1      -7.185  -0.341 -31.659  1.00  0.00    -0.028 C 
ATOM      6  C   UNL     1      -7.870   0.273 -32.643  1.00  0.00    -0.074 C 
ATOM      7  C   UNL     1      -9.301  -0.126 -32.998  1.00  0.00     0.014 C 
ATOM      8  C   UNL     1     -10.184   1.065 -33.393  1.00  0.00     0.012 C 
ATOM      9  C   UNL     1      -7.212   1.342 -33.475  1.00  0.00     0.039 C 
ENDROOT
TORSDOF 0
ENDMDL
MODEL 9
REMARK VINA RESULT:      -4.9      1.226      3.139
REMARK SMILES CC1=CCC[C@@H](C)[C@H]1C
REMARK SMILES IDX 7 1 6 2 5 3 4 4 3 5 2 6 8 7 9 8 1 9
REMARK H PARENT
ROOT
ATOM      1  C   UNL     1      -3.671   0.691 -30.417  1.00  0.00     0.008 C 
ATOM      2  C   UNL     1      -2.979  -0.454 -29.664  1.00  0.00    -0.007 C 
ATOM      3  C   UNL     1      -3.670  -1.794 -29.962  1.00  0.00     0.008 C 
ATOM      4  C   UNL     1      -5.083  -1.855 -29.382  1.00  0.00     0.027 C 
ATOM      5  C   UNL     1      -5.170  -1.293 -27.994  1.00  0.00    -0.028 C 
ATOM      6  C   UNL     1      -4.195  -0.577 -27.402  1.00  0.00    -0.074 C 
ATOM      7  C   UNL     1      -2.892  -0.240 -28.124  1.00  0.00     0.014 C 
ATOM      8  C   UNL     1      -2.354   1.157 -27.787  1.00  0.00     0.012 C 
ATOM      9  C   UNL     1      -4.339  -0.137 -25.969  1.00  0.00     0.039 C 
ENDROOT
TORSDOF 0
ENDMDL
MODEL 10
REMARK VINA RESULT:      -4.9      5.182      6.900
REMARK SMILES CC1=CCC[C@@H](C)[C@H]1C
REMARK SMILES IDX 7 1 6 2 5 3 4 4 3 5 2 6 8 7 9 8 1 9
REMARK H PARENT
ROOT
ATOM      1  C   UNL     1     -10.107  -0.367 -31.110  1.00  0.00     0.008 C 
ATOM      2  C   UNL     1      -9.853   1.104 -31.467  1.00  0.00    -0.007 C 
ATOM      3  C   UNL     1     -10.334   1.406 -32.895  1.00  0.00     0.008 C 
ATOM      4  C   UNL     1      -9.496   0.686 -33.950  1.00  0.00     0.027 C 
ATOM      5  C   UNL     1      -8.025   0.733 -33.661  1.00  0.00    -0.028 C 
ATOM      6  C   UNL     1      -7.494   1.130 -32.489  1.00  0.00    -0.074 C 
ATOM      7  C   UNL     1      -8.369   1.548 -31.309  1.00  0.00     0.014 C 
ATOM      8  C   UNL     1      -7.802   1.118 -29.949  1.00  0.00     0.012 C 
ATOM      9  C   UNL     1      -6.000   1.234 -32.328  1.00  0.00     0.039 C 
ENDROOT
TORSDOF 0
ENDMDL
