MODEL 1
REMARK VINA RESULT:      -5.3      0.000      0.000
REMARK SMILES C=C(C)[C@@H]1CCC=C[C@@H]1C
REMARK SMILES IDX 10 1 9 2 8 3 7 4 6 5 5 6 4 7 2 8 1 9 3 10
REMARK H PARENT
ROOT
ATOM      1  C   UNL     1      -2.901   1.973 -28.184  1.00  0.00     0.013 C 
ATOM      2  C   UNL     1      -2.951   0.468 -27.904  1.00  0.00     0.015 C 
ATOM      3  C   UNL     1      -3.902   0.147 -26.776  1.00  0.00    -0.028 C 
ATOM      4  C   UNL     1      -4.628  -0.979 -26.723  1.00  0.00    -0.031 C 
ATOM      5  C   UNL     1      -4.573  -2.052 -27.768  1.00  0.00     0.027 C 
ATOM      6  C   UNL     1      -3.465  -1.858 -28.806  1.00  0.00     0.013 C 
ATOM      7  C   UNL     1      -3.187  -0.388 -29.186  1.00  0.00     0.021 C 
ENDROOT
BRANCH   7   8
ATOM      8  C   UNL     1      -4.181   0.167 -30.212  1.00  0.00    -0.077 C 
ATOM      9  C   UNL     1      -3.806   0.359 -31.490  1.00  0.00     0.008 C 
ATOM     10  C   UNL     1      -5.581   0.517 -29.787  1.00  0.00     0.039 C 
ENDBRANCH   7   8
TORSDOF 1
ENDMDL
MODEL 2
REMARK VINA RESULT:      -5.3      1.186      2.746
REMARK SMILES C=C(C)[C@@H]1CCC=C[C@@H]1C
REMARK SMILES IDX 10 1 9 2 8 3 7 4 6 5 5 6 4 7 2 8 1 9 3 10
REMARK H PARENT
ROOT
ATOM      1  C   UNL     1      -4.200   0.008 -26.655  1.00  0.00     0.013 C 
ATOM      2  C   UNL     1      -3.339  -0.498 -27.817  1.00  0.00     0.015 C 
ATOM      3  C   UNL     1      -4.103  -1.463 -28.690  1.00  0.00    -0.028 C 
ATOM      4  C   UNL     1      -3.919  -1.561 -30.014  1.00  0.00    -0.031 C 
ATOM      5  C   UNL     1      -2.933  -0.733 -30.779  1.00  0.00     0.027 C 
ATOM      6  C   UNL     1      -1.996   0.096 -29.897  1.00  0.00     0.013 C 
ATOM      7  C   UNL     1      -2.643   0.650 -28.611  1.00  0.00     0.021 C 
ENDROOT
BRANCH   7   8
ATOM      8  C   UNL     1      -3.468   1.920 -28.850  1.00  0.00    -0.077 C 
ATOM      9  C   UNL     1      -3.082   3.094 -28.314  1.00  0.00     0.008 C 
ATOM     10  C   UNL     1      -4.724   1.856 -29.674  1.00  0.00     0.039 C 
ENDBRANCH   7   8
TORSDOF 1
ENDMDL
MODEL 3
REMARK VINA RESULT:      -5.2      1.156      3.334
REMARK SMILES C=C(C)[C@@H]1CCC=C[C@@H]1C
REMARK SMILES IDX 10 1 9 2 8 3 7 4 6 5 5 6 4 7 2 8 1 9 3 10
REMARK H PARENT
ROOT
ATOM      1  C   UNL     1      -6.175   0.630 -29.224  1.00  0.00     0.013 C 
ATOM      2  C   UNL     1      -4.654   0.759 -29.346  1.00  0.00     0.015 C 
ATOM      3  C   UNL     1      -4.165   2.078 -28.798  1.00  0.00    -0.028 C 
ATOM      4  C   UNL     1      -2.981   2.228 -28.188  1.00  0.00    -0.031 C 
ATOM      5  C   UNL     1      -2.003   1.111 -27.987  1.00  0.00     0.027 C 
ATOM      6  C   UNL     1      -2.372  -0.182 -28.719  1.00  0.00     0.013 C 
ATOM      7  C   UNL     1      -3.885  -0.477 -28.785  1.00  0.00     0.021 C 
ENDROOT
BRANCH   7   8
ATOM      8  C   UNL     1      -4.434  -1.103 -27.498  1.00  0.00    -0.077 C 
ATOM      9  C   UNL     1      -4.904  -2.364 -27.501  1.00  0.00     0.008 C 
ATOM     10  C   UNL     1      -4.466  -0.300 -26.227  1.00  0.00     0.039 C 
ENDBRANCH   7   8
TORSDOF 1
ENDMDL
MODEL 4
REMARK VINA RESULT:      -5.2      0.983      2.878
REMARK SMILES C=C(C)[C@@H]1CCC=C[C@@H]1C
REMARK SMILES IDX 10 1 9 2 8 3 7 4 6 5 5 6 4 7 2 8 1 9 3 10
REMARK H PARENT
ROOT
ATOM      1  C   UNL     1      -3.401   0.115 -31.136  1.00  0.00     0.013 C 
ATOM      2  C   UNL     1      -4.315  -0.343 -29.995  1.00  0.00     0.015 C 
ATOM      3  C   UNL     1      -3.895  -1.690 -29.459  1.00  0.00    -0.028 C 
ATOM      4  C   UNL     1      -4.022  -2.043 -28.172  1.00  0.00    -0.031 C 
ATOM      5  C   UNL     1      -4.602  -1.147 -27.119  1.00  0.00     0.027 C 
ATOM      6  C   UNL     1      -5.232   0.136 -27.667  1.00  0.00     0.013 C 
ATOM      7  C   UNL     1      -4.507   0.740 -28.889  1.00  0.00     0.021 C 
ENDROOT
BRANCH   7   8
ATOM      8  C   UNL     1      -3.272   1.563 -28.509  1.00  0.00    -0.077 C 
ATOM      9  C   UNL     1      -3.296   2.907 -28.594  1.00  0.00     0.008 C 
ATOM     10  C   UNL     1      -2.017   0.870 -28.054  1.00  0.00     0.039 C 
ENDBRANCH   7   8
TORSDOF 1
ENDMDL
MODEL 5
REMARK VINA RESULT:      -5.2      4.812      6.833
REMARK SMILES C=C(C)[C@@H]1CCC=C[C@@H]1C
REMARK SMILES IDX 10 1 9 2 8 3 7 4 6 5 5 6 4 7 2 8 1 9 3 10
REMARK H PARENT
ROOT
ATOM      1  C   UNL     1      -7.464   1.703 -30.434  1.00  0.00     0.013 C 
ATOM      2  C   UNL     1      -8.427   1.651 -31.625  1.00  0.00     0.015 C 
ATOM      3  C   UNL     1      -7.710   1.271 -32.897  1.00  0.00    -0.028 C 
ATOM      4  C   UNL     1      -8.278   0.549 -33.874  1.00  0.00    -0.031 C 
ATOM      5  C   UNL     1      -9.687   0.043 -33.821  1.00  0.00     0.027 C 
ATOM      6  C   UNL     1     -10.505   0.592 -32.649  1.00  0.00     0.013 C 
ATOM      7  C   UNL     1      -9.704   0.801 -31.346  1.00  0.00     0.021 C 
ENDROOT
BRANCH   7   8
ATOM      8  C   UNL     1      -9.509  -0.492 -30.545  1.00  0.00    -0.077 C 
ATOM      9  C   UNL     1      -9.978  -0.591 -29.287  1.00  0.00     0.008 C 
ATOM     10  C   UNL     1      -8.777  -1.652 -31.159  1.00  0.00     0.039 C 
ENDBRANCH   7   8
TORSDOF 1
ENDMDL
MODEL 6
REMARK VINA RESULT:      -5.1      1.250      3.385
REMARK SMILES C=C(C)[C@@H]1CCC=C[C@@H]1C
REMARK SMILES IDX 10 1 9 2 8 3 7 4 6 5 5 6 4 7 2 8 1 9 3 10
REMARK H PARENT
ROOT
ATOM      1  C   UNL     1      -4.204  -2.034 -27.962  1.00  0.00     0.013 C 
ATOM      2  C   UNL     1      -4.175  -1.617 -29.436  1.00  0.00     0.015 C 
ATOM      3  C   UNL     1      -5.566  -1.370 -29.967  1.00  0.00    -0.028 C 
ATOM      4  C   UNL     1      -5.846  -0.444 -30.895  1.00  0.00    -0.031 C 
ATOM      5  C   UNL     1      -4.814   0.445 -31.519  1.00  0.00     0.027 C 
ATOM      6  C   UNL     1      -3.371   0.073 -31.164  1.00  0.00     0.013 C 
ATOM      7  C   UNL     1      -3.177  -0.454 -29.726  1.00  0.00     0.021 C 
ENDROOT
BRANCH   7   8
ATOM      8  C   UNL     1      -3.098   0.663 -28.680  1.00  0.00    -0.077 C 
ATOM      9  C   UNL     1      -1.959   0.875 -27.995  1.00  0.00     0.008 C 
ATOM     10  C   UNL     1      -4.303   1.519 -28.403  1.00  0.00     0.039 C 
ENDBRANCH   7   8
TORSDOF 1
ENDMDL
MODEL 7
REMARK VINA RESULT:      -5.1      1.325      2.531
REMARK SMILES C=C(C)[C@@H]1CCC=C[C@@H]1C
REMARK SMILES IDX 10 1 9 2 8 3 7 4 6 5 5 6 4 7 2 8 1 9 3 10
REMARK H PARENT
ROOT
ATOM      1  C   UNL     1      -3.113  -1.001 -30.401  1.00  0.00     0.013 C 
ATOM      2  C   UNL     1      -3.205  -1.162 -28.880  1.00  0.00     0.015 C 
ATOM      3  C   UNL     1      -2.920   0.139 -28.170  1.00  0.00    -0.028 C 
ATOM      4  C   UNL     1      -3.510   0.494 -27.020  1.00  0.00    -0.031 C 
ATOM      5  C   UNL     1      -4.512  -0.358 -26.303  1.00  0.00     0.027 C 
ATOM      6  C   UNL     1      -4.661  -1.768 -26.880  1.00  0.00     0.013 C 
ATOM      7  C   UNL     1      -4.523  -1.855 -28.415  1.00  0.00     0.021 C 
ENDROOT
BRANCH   7   8
ATOM      8  C   UNL     1      -5.805  -1.466 -29.158  1.00  0.00    -0.077 C 
ATOM      9  C   UNL     1      -6.539  -2.402 -29.788  1.00  0.00     0.008 C 
ATOM     10  C   UNL     1      -6.242  -0.027 -29.200  1.00  0.00     0.039 C 
ENDBRANCH   7   8
TORSDOF 1
ENDMDL
MODEL 8
REMARK VINA RESULT:      -5.0      1.407      2.777
REMARK SMILES C=C(C)[C@@H]1CCC=C[C@@H]1C
REMARK SMILES IDX 10 1 9 2 8 3 7 4 6 5 5 6 4 7 2 8 1 9 3 10
REMARK H PARENT
ROOT
ATOM      1  C   UNL     1      -5.877   1.414 -28.184  1.00  0.00     0.013 C 
ATOM      2  C   UNL     1      -4.520   1.390 -28.895  1.00  0.00     0.015 C 
ATOM      3  C   UNL     1      -3.386   1.630 -27.928  1.00  0.00    -0.028 C 
ATOM      4  C   UNL     1      -2.177   1.066 -28.057  1.00  0.00    -0.031 C 
ATOM      5  C   UNL     1      -1.807   0.142 -29.177  1.00  0.00     0.027 C 
ATOM      6  C   UNL     1      -2.859   0.051 -30.286  1.00  0.00     0.013 C 
ATOM      7  C   UNL     1      -4.321   0.133 -29.796  1.00  0.00     0.021 C 
ENDROOT
BRANCH   7   8
ATOM      8  C   UNL     1      -4.849  -1.198 -29.249  1.00  0.00    -0.077 C 
ATOM      9  C   UNL     1      -5.879  -1.821 -29.850  1.00  0.00     0.008 C 
ATOM     10  C   UNL     1      -4.226  -1.806 -28.023  1.00  0.00     0.039 C 
ENDBRANCH   7   8
TORSDOF 1
ENDMDL
MODEL 9
REMARK VINA RESULT:      -5.0      1.377      3.345
REMARK SMILES C=C(C)[C@@H]1CCC=C[C@@H]1C
REMARK SMILES IDX 10 1 9 2 8 3 7 4 6 5 5 6 4 7 2 8 1 9 3 10
REMARK H PARENT
ROOT
ATOM      1  C   UNL     1      -5.373  -2.012 -29.121  1.00  0.00     0.013 C 
ATOM      2  C   UNL     1      -4.212  -1.394 -28.336  1.00  0.00     0.015 C 
ATOM      3  C   UNL     1      -3.041  -1.084 -29.236  1.00  0.00    -0.028 C 
ATOM      4  C   UNL     1      -2.222  -0.040 -29.044  1.00  0.00    -0.031 C 
ATOM      5  C   UNL     1      -2.367   0.933 -27.914  1.00  0.00     0.027 C 
ATOM      6  C   UNL     1      -3.406   0.524 -26.867  1.00  0.00     0.013 C 
ATOM      7  C   UNL     1      -4.646  -0.197 -27.436  1.00  0.00     0.021 C 
ENDROOT
BRANCH   7   8
ATOM      8  C   UNL     1      -5.685   0.765 -28.025  1.00  0.00    -0.077 C 
ATOM      9  C   UNL     1      -6.910   0.863 -27.476  1.00  0.00     0.008 C 
ATOM     10  C   UNL     1      -5.342   1.594 -29.231  1.00  0.00     0.039 C 
ENDBRANCH   7   8
TORSDOF 1
ENDMDL
MODEL 10
REMARK VINA RESULT:      -5.0      4.277      6.646
REMARK SMILES C=C(C)[C@@H]1CCC=C[C@@H]1C
REMARK SMILES IDX 10 1 9 2 8 3 7 4 6 5 5 6 4 7 2 8 1 9 3 10
REMARK H PARENT
ROOT
ATOM      1  C   UNL     1      -6.520   1.316 -32.500  1.00  0.00     0.013 C 
ATOM      2  C   UNL     1      -8.046   1.364 -32.628  1.00  0.00     0.015 C 
ATOM      3  C   UNL     1      -8.527   0.543 -33.800  1.00  0.00    -0.028 C 
ATOM      4  C   UNL     1      -9.692  -0.121 -33.805  1.00  0.00    -0.031 C 
ATOM      5  C   UNL     1     -10.653  -0.120 -32.656  1.00  0.00     0.027 C 
ATOM      6  C   UNL     1     -10.298   0.872 -31.545  1.00  0.00     0.013 C 
ATOM      7  C   UNL     1      -8.785   1.043 -31.293  1.00  0.00     0.021 C 
ENDROOT
BRANCH   7   8
ATOM      8  C   UNL     1      -8.188  -0.072 -30.426  1.00  0.00    -0.077 C 
ATOM      9  C   UNL     1      -7.847   0.169 -29.147  1.00  0.00     0.008 C 
ATOM     10  C   UNL     1      -7.967  -1.440 -31.010  1.00  0.00     0.039 C 
ENDBRANCH   7   8
TORSDOF 1
ENDMDL
