MODEL 1
REMARK VINA RESULT:      -7.4      0.000      0.000
REMARK SMILES Oc1cc(O)cc(/C=C/c2ccc(O)cc2O)c1
REMARK SMILES IDX 9 1 8 2 10 3 12 4 11 5 13 6 15 7 16 8 14 9 17 11 7 13 6 14
REMARK SMILES IDX 18 15 4 16 2 17 3 18 5 19 1 21
REMARK H PARENT 14 10 17 12 5 20 1 22
ROOT
ATOM      1  C   UNL     1      -6.903  -2.194 -29.367  1.00  0.00     0.012 C 
ATOM      2  C   UNL     1      -7.537  -3.158 -30.051  1.00  0.00     0.009 C 
ENDROOT
BRANCH   1   3
ATOM      3  C   UNL     1      -5.732  -1.501 -29.914  1.00  0.00     0.017 A 
ATOM      4  C   UNL     1      -3.313  -1.277 -29.960  1.00  0.00     0.047 A 
ATOM      5  C   UNL     1      -4.463  -1.905 -29.476  1.00  0.00     0.016 A 
ATOM      6  C   UNL     1      -3.427  -0.245 -30.884  1.00  0.00     0.119 A 
ATOM      7  C   UNL     1      -4.674   0.169 -31.338  1.00  0.00     0.092 A 
ATOM      8  C   UNL     1      -5.819  -0.463 -30.856  1.00  0.00     0.126 A 
BRANCH   6   9
ATOM      9  O   UNL     1      -2.279   0.341 -31.328  1.00  0.00    -0.508 OA
ATOM     10  H   UNL     1      -1.731   0.567 -30.558  1.00  0.00     0.293 HD
ENDBRANCH   6   9
BRANCH   8  11
ATOM     11  O   UNL     1      -7.012  -0.021 -31.363  1.00  0.00    -0.507 OA
ATOM     12  H   UNL     1      -7.369   0.653 -30.761  1.00  0.00     0.293 HD
ENDBRANCH   8  11
ENDBRANCH   1   3
BRANCH   2  13
ATOM     13  C   UNL     1      -8.708  -3.886 -29.544  1.00  0.00    -0.018 A 
ATOM     14  C   UNL     1      -9.543  -4.639 -30.383  1.00  0.00     0.054 A 
ATOM     15  C   UNL     1      -8.968  -3.868 -28.167  1.00  0.00     0.054 A 
ATOM     16  C   UNL     1     -10.626  -5.332 -29.844  1.00  0.00     0.119 A 
ATOM     17  C   UNL     1     -10.057  -4.565 -27.650  1.00  0.00     0.119 A 
ATOM     18  C   UNL     1     -10.895  -5.298 -28.481  1.00  0.00     0.092 A 
BRANCH  16  19
ATOM     19  O   UNL     1     -11.459  -6.072 -30.632  1.00  0.00    -0.508 OA
ATOM     20  H   UNL     1     -12.102  -6.530 -30.066  1.00  0.00     0.293 HD
ENDBRANCH  16  19
BRANCH  17  21
ATOM     21  O   UNL     1     -10.269  -4.503 -26.304  1.00  0.00    -0.508 OA
ATOM     22  H   UNL     1     -10.691  -3.652 -26.097  1.00  0.00     0.293 HD
ENDBRANCH  17  21
ENDBRANCH   2  13
TORSDOF 6
ENDMDL
MODEL 2
REMARK VINA RESULT:      -7.4      0.237      1.961
REMARK SMILES Oc1cc(O)cc(/C=C/c2ccc(O)cc2O)c1
REMARK SMILES IDX 9 1 8 2 10 3 12 4 11 5 13 6 15 7 16 8 14 9 17 11 7 13 6 14
REMARK SMILES IDX 18 15 4 16 2 17 3 18 5 19 1 21
REMARK H PARENT 14 10 17 12 5 20 1 22
ROOT
ATOM      1  C   UNL     1      -7.081  -2.201 -29.351  1.00  0.00     0.012 C 
ATOM      2  C   UNL     1      -7.657  -3.251 -29.957  1.00  0.00     0.009 C 
ENDROOT
BRANCH   1   3
ATOM      3  C   UNL     1      -5.935  -1.501 -29.942  1.00  0.00     0.017 A 
ATOM      4  C   UNL     1      -3.521  -1.314 -30.139  1.00  0.00     0.047 A 
ATOM      5  C   UNL     1      -4.649  -1.947 -29.610  1.00  0.00     0.016 A 
ATOM      6  C   UNL     1      -3.676  -0.236 -31.002  1.00  0.00     0.119 A 
ATOM      7  C   UNL     1      -4.942   0.221 -31.351  1.00  0.00     0.092 A 
ATOM      8  C   UNL     1      -6.065  -0.416 -30.824  1.00  0.00     0.126 A 
BRANCH   6   9
ATOM      9  O   UNL     1      -2.549   0.353 -31.493  1.00  0.00    -0.508 OA
ATOM     10  H   UNL     1      -1.778  -0.138 -31.166  1.00  0.00     0.293 HD
ENDBRANCH   6   9
BRANCH   8  11
ATOM     11  O   UNL     1      -7.280   0.070 -31.228  1.00  0.00    -0.507 OA
ATOM     12  H   UNL     1      -7.170   0.481 -32.102  1.00  0.00     0.293 HD
ENDBRANCH   8  11
ENDBRANCH   1   3
BRANCH   2  13
ATOM     13  C   UNL     1      -8.800  -3.990 -29.402  1.00  0.00    -0.018 A 
ATOM     14  C   UNL     1      -9.146  -3.923 -28.045  1.00  0.00     0.054 A 
ATOM     15  C   UNL     1      -9.599  -4.745 -30.271  1.00  0.00     0.054 A 
ATOM     16  C   UNL     1     -10.257  -4.624 -27.577  1.00  0.00     0.119 A 
ATOM     17  C   UNL     1     -10.703  -5.440 -29.782  1.00  0.00     0.119 A 
ATOM     18  C   UNL     1     -11.038  -5.388 -28.435  1.00  0.00     0.092 A 
BRANCH  16  19
ATOM     19  O   UNL     1     -10.621  -4.581 -26.262  1.00  0.00    -0.508 OA
ATOM     20  H   UNL     1     -11.308  -5.251 -26.106  1.00  0.00     0.293 HD
ENDBRANCH  16  19
BRANCH  17  21
ATOM     21  O   UNL     1     -11.438  -6.168 -30.671  1.00  0.00    -0.508 OA
ATOM     22  H   UNL     1     -12.380  -6.052 -30.459  1.00  0.00     0.293 HD
ENDBRANCH  17  21
ENDBRANCH   2  13
TORSDOF 6
ENDMDL
MODEL 3
REMARK VINA RESULT:      -7.3      4.297      5.955
REMARK SMILES Oc1cc(O)cc(/C=C/c2ccc(O)cc2O)c1
REMARK SMILES IDX 9 1 8 2 10 3 12 4 11 5 13 6 15 7 16 8 14 9 17 11 7 13 6 14
REMARK SMILES IDX 18 15 4 16 2 17 3 18 5 19 1 21
REMARK H PARENT 14 10 17 12 5 20 1 22
ROOT
ATOM      1  C   UNL     1      -6.334   2.617 -30.116  1.00  0.00     0.012 C 
ATOM      2  C   UNL     1      -6.450   2.026 -31.315  1.00  0.00     0.009 C 
ENDROOT
BRANCH   1   3
ATOM      3  C   UNL     1      -5.162   3.426 -29.764  1.00  0.00     0.017 A 
ATOM      4  C   UNL     1      -3.812   5.393 -30.220  1.00  0.00     0.047 A 
ATOM      5  C   UNL     1      -4.917   4.588 -30.508  1.00  0.00     0.016 A 
ATOM      6  C   UNL     1      -2.952   5.042 -29.187  1.00  0.00     0.119 A 
ATOM      7  C   UNL     1      -3.178   3.897 -28.431  1.00  0.00     0.092 A 
ATOM      8  C   UNL     1      -4.283   3.098 -28.719  1.00  0.00     0.126 A 
BRANCH   6   9
ATOM      9  O   UNL     1      -1.886   5.856 -28.942  1.00  0.00    -0.508 OA
ATOM     10  H   UNL     1      -2.219   6.739 -28.714  1.00  0.00     0.293 HD
ENDBRANCH   6   9
BRANCH   8  11
ATOM     11  O   UNL     1      -4.459   2.000 -27.919  1.00  0.00    -0.507 OA
ATOM     12  H   UNL     1      -5.233   2.154 -27.353  1.00  0.00     0.293 HD
ENDBRANCH   8  11
ENDBRANCH   1   3
BRANCH   2  13
ATOM     13  C   UNL     1      -7.598   1.200 -31.712  1.00  0.00    -0.018 A 
ATOM     14  C   UNL     1      -7.586  -0.198 -31.606  1.00  0.00     0.054 A 
ATOM     15  C   UNL     1      -8.762   1.837 -32.163  1.00  0.00     0.054 A 
ATOM     16  C   UNL     1      -8.714  -0.932 -31.973  1.00  0.00     0.119 A 
ATOM     17  C   UNL     1      -9.876   1.084 -32.528  1.00  0.00     0.119 A 
ATOM     18  C   UNL     1      -9.861  -0.302 -32.439  1.00  0.00     0.092 A 
BRANCH  16  19
ATOM     19  O   UNL     1      -8.735  -2.294 -31.884  1.00  0.00    -0.508 OA
ATOM     20  H   UNL     1      -9.524  -2.563 -31.385  1.00  0.00     0.293 HD
ENDBRANCH  16  19
BRANCH  17  21
ATOM     21  O   UNL     1     -10.978   1.756 -32.971  1.00  0.00    -0.508 OA
ATOM     22  H   UNL     1     -10.690   2.437 -33.603  1.00  0.00     0.293 HD
ENDBRANCH  17  21
ENDBRANCH   2  13
TORSDOF 6
ENDMDL
MODEL 4
REMARK VINA RESULT:      -7.2      3.667      7.501
REMARK SMILES Oc1cc(O)cc(/C=C/c2ccc(O)cc2O)c1
REMARK SMILES IDX 9 1 8 2 10 3 12 4 11 5 13 6 15 7 16 8 14 9 17 11 7 13 6 14
REMARK SMILES IDX 18 15 4 16 2 17 3 18 5 19 1 21
REMARK H PARENT 14 10 17 12 5 20 1 22
ROOT
ATOM      1  C   UNL     1      -6.549   0.009 -31.580  1.00  0.00     0.012 C 
ATOM      2  C   UNL     1      -6.095  -0.050 -30.318  1.00  0.00     0.009 C 
ENDROOT
BRANCH   1   3
ATOM      3  C   UNL     1      -7.967  -0.182 -31.901  1.00  0.00     0.017 A 
ATOM      4  C   UNL     1     -10.161  -0.917 -31.158  1.00  0.00     0.047 A 
ATOM      5  C   UNL     1      -8.803  -0.708 -30.906  1.00  0.00     0.016 A 
ATOM      6  C   UNL     1     -10.689  -0.598 -32.403  1.00  0.00     0.119 A 
ATOM      7  C   UNL     1      -9.881  -0.069 -33.404  1.00  0.00     0.092 A 
ATOM      8  C   UNL     1      -8.528   0.141 -33.147  1.00  0.00     0.126 A 
BRANCH   6   9
ATOM      9  O   UNL     1     -12.019  -0.820 -32.606  1.00  0.00    -0.508 OA
ATOM     10  H   UNL     1     -12.319  -1.490 -31.971  1.00  0.00     0.293 HD
ENDBRANCH   6   9
BRANCH   8  11
ATOM     11  O   UNL     1      -7.797   0.687 -34.169  1.00  0.00    -0.507 OA
ATOM     12  H   UNL     1      -8.247   1.494 -34.471  1.00  0.00     0.293 HD
ENDBRANCH   8  11
ENDBRANCH   1   3
BRANCH   2  13
ATOM     13  C   UNL     1      -4.685   0.126 -29.947  1.00  0.00    -0.018 A 
ATOM     14  C   UNL     1      -4.288   0.417 -28.634  1.00  0.00     0.054 A 
ATOM     15  C   UNL     1      -3.702  -0.054 -30.930  1.00  0.00     0.054 A 
ATOM     16  C   UNL     1      -2.933   0.549 -28.331  1.00  0.00     0.119 A 
ATOM     17  C   UNL     1      -2.354   0.085 -30.607  1.00  0.00     0.119 A 
ATOM     18  C   UNL     1      -1.959   0.390 -29.310  1.00  0.00     0.092 A 
BRANCH  16  19
ATOM     19  O   UNL     1      -2.512   0.833 -27.065  1.00  0.00    -0.508 OA
ATOM     20  H   UNL     1      -3.151   0.463 -26.432  1.00  0.00     0.293 HD
ENDBRANCH  16  19
BRANCH  17  21
ATOM     21  O   UNL     1      -1.442  -0.089 -31.606  1.00  0.00    -0.508 OA
ATOM     22  H   UNL     1      -1.036  -0.967 -31.502  1.00  0.00     0.293 HD
ENDBRANCH  17  21
ENDBRANCH   2  13
TORSDOF 6
ENDMDL
MODEL 5
REMARK VINA RESULT:      -7.2      1.794      7.538
REMARK SMILES Oc1cc(O)cc(/C=C/c2ccc(O)cc2O)c1
REMARK SMILES IDX 9 1 8 2 10 3 12 4 11 5 13 6 15 7 16 8 14 9 17 11 7 13 6 14
REMARK SMILES IDX 18 15 4 16 2 17 3 18 5 19 1 21
REMARK H PARENT 14 10 17 12 5 20 1 22
ROOT
ATOM      1  C   UNL     1      -6.869  -2.265 -29.365  1.00  0.00     0.012 C 
ATOM      2  C   UNL     1      -5.859  -2.023 -28.514  1.00  0.00     0.009 C 
ENDROOT
BRANCH   1   3
ATOM      3  C   UNL     1      -8.059  -3.018 -28.957  1.00  0.00     0.017 A 
ATOM      4  C   UNL     1      -9.891  -3.269 -27.381  1.00  0.00     0.047 A 
ATOM      5  C   UNL     1      -8.754  -2.586 -27.818  1.00  0.00     0.016 A 
ATOM      6  C   UNL     1     -10.339  -4.384 -28.080  1.00  0.00     0.119 A 
ATOM      7  C   UNL     1      -9.670  -4.828 -29.215  1.00  0.00     0.092 A 
ATOM      8  C   UNL     1      -8.538  -4.141 -29.651  1.00  0.00     0.126 A 
BRANCH   6   9
ATOM      9  O   UNL     1     -11.451  -5.021 -27.616  1.00  0.00    -0.508 OA
ATOM     10  H   UNL     1     -11.675  -5.738 -28.233  1.00  0.00     0.293 HD
ENDBRANCH   6   9
BRANCH   8  11
ATOM     11  O   UNL     1      -7.943  -4.619 -30.788  1.00  0.00    -0.507 OA
ATOM     12  H   UNL     1      -8.637  -4.963 -31.375  1.00  0.00     0.293 HD
ENDBRANCH   8  11
ENDBRANCH   1   3
BRANCH   2  13
ATOM     13  C   UNL     1      -4.644  -1.282 -28.877  1.00  0.00    -0.018 A 
ATOM     14  C   UNL     1      -3.865  -0.610 -27.923  1.00  0.00     0.054 A 
ATOM     15  C   UNL     1      -4.223  -1.291 -30.213  1.00  0.00     0.054 A 
ATOM     16  C   UNL     1      -2.706   0.057 -28.319  1.00  0.00     0.119 A 
ATOM     17  C   UNL     1      -3.063  -0.616 -30.587  1.00  0.00     0.119 A 
ATOM     18  C   UNL     1      -2.299   0.064 -29.647  1.00  0.00     0.092 A 
BRANCH  16  19
ATOM     19  O   UNL     1      -1.927   0.722 -27.417  1.00  0.00    -0.508 OA
ATOM     20  H   UNL     1      -1.638   0.096 -26.731  1.00  0.00     0.293 HD
ENDBRANCH  16  19
BRANCH  17  21
ATOM     21  O   UNL     1      -2.708  -0.649 -31.904  1.00  0.00    -0.508 OA
ATOM     22  H   UNL     1      -3.169  -1.392 -32.329  1.00  0.00     0.293 HD
ENDBRANCH  17  21
ENDBRANCH   2  13
TORSDOF 6
ENDMDL
MODEL 6
REMARK VINA RESULT:      -7.1      4.672      8.445
REMARK SMILES Oc1cc(O)cc(/C=C/c2ccc(O)cc2O)c1
REMARK SMILES IDX 9 1 8 2 10 3 12 4 11 5 13 6 15 7 16 8 14 9 17 11 7 13 6 14
REMARK SMILES IDX 18 15 4 16 2 17 3 18 5 19 1 21
REMARK H PARENT 14 10 17 12 5 20 1 22
ROOT
ATOM      1  C   UNL     1      -6.002  -0.270 -25.204  1.00  0.00     0.012 C 
ATOM      2  C   UNL     1      -6.024  -0.423 -26.537  1.00  0.00     0.009 C 
ENDROOT
BRANCH   1   3
ATOM      3  C   UNL     1      -7.231  -0.305 -24.402  1.00  0.00     0.017 A 
ATOM      4  C   UNL     1      -9.334   0.762 -23.819  1.00  0.00     0.047 A 
ATOM      5  C   UNL     1      -8.150   0.741 -24.561  1.00  0.00     0.016 A 
ATOM      6  C   UNL     1      -9.603  -0.262 -22.919  1.00  0.00     0.119 A 
ATOM      7  C   UNL     1      -8.710  -1.314 -22.750  1.00  0.00     0.092 A 
ATOM      8  C   UNL     1      -7.532  -1.333 -23.495  1.00  0.00     0.126 A 
BRANCH   6   9
ATOM      9  O   UNL     1     -10.769  -0.201 -22.215  1.00  0.00    -0.508 OA
ATOM     10  H   UNL     1     -10.674   0.470 -21.520  1.00  0.00     0.293 HD
ENDBRANCH   6   9
BRANCH   8  11
ATOM     11  O   UNL     1      -6.709  -2.410 -23.295  1.00  0.00    -0.507 OA
ATOM     12  H   UNL     1      -7.261  -3.206 -23.215  1.00  0.00     0.293 HD
ENDBRANCH   8  11
ENDBRANCH   1   3
BRANCH   2  13
ATOM     13  C   UNL     1      -4.823  -0.388 -27.383  1.00  0.00    -0.018 A 
ATOM     14  C   UNL     1      -3.704   0.393 -27.062  1.00  0.00     0.054 A 
ATOM     15  C   UNL     1      -4.778  -1.203 -28.522  1.00  0.00     0.054 A 
ATOM     16  C   UNL     1      -2.580   0.369 -27.887  1.00  0.00     0.119 A 
ATOM     17  C   UNL     1      -3.647  -1.210 -29.334  1.00  0.00     0.119 A 
ATOM     18  C   UNL     1      -2.543  -0.425 -29.027  1.00  0.00     0.092 A 
BRANCH  16  19
ATOM     19  O   UNL     1      -1.475   1.118 -27.604  1.00  0.00    -0.508 OA
ATOM     20  H   UNL     1      -1.705   2.059 -27.686  1.00  0.00     0.293 HD
ENDBRANCH  16  19
BRANCH  17  21
ATOM     21  O   UNL     1      -3.663  -2.014 -30.436  1.00  0.00    -0.508 OA
ATOM     22  H   UNL     1      -2.987  -1.696 -31.060  1.00  0.00     0.293 HD
ENDBRANCH  17  21
ENDBRANCH   2  13
TORSDOF 6
ENDMDL
MODEL 7
REMARK VINA RESULT:      -7.1      4.625      8.190
REMARK SMILES Oc1cc(O)cc(/C=C/c2ccc(O)cc2O)c1
REMARK SMILES IDX 9 1 8 2 10 3 12 4 11 5 13 6 15 7 16 8 14 9 17 11 7 13 6 14
REMARK SMILES IDX 18 15 4 16 2 17 3 18 5 19 1 21
REMARK H PARENT 14 10 17 12 5 20 1 22
ROOT
ATOM      1  C   UNL     1      -6.002  -0.248 -25.288  1.00  0.00     0.012 C 
ATOM      2  C   UNL     1      -6.019  -0.609 -26.581  1.00  0.00     0.009 C 
ENDROOT
BRANCH   1   3
ATOM      3  C   UNL     1      -7.216  -0.267 -24.465  1.00  0.00     0.017 A 
ATOM      4  C   UNL     1      -9.295   0.827 -23.846  1.00  0.00     0.047 A 
ATOM      5  C   UNL     1      -8.125   0.790 -24.609  1.00  0.00     0.016 A 
ATOM      6  C   UNL     1      -9.560  -0.193 -22.939  1.00  0.00     0.119 A 
ATOM      7  C   UNL     1      -8.676  -1.254 -22.783  1.00  0.00     0.092 A 
ATOM      8  C   UNL     1      -7.512  -1.289 -23.549  1.00  0.00     0.126 A 
BRANCH   6   9
ATOM      9  O   UNL     1     -10.712  -0.116 -22.214  1.00  0.00    -0.508 OA
ATOM     10  H   UNL     1     -11.348   0.432 -22.704  1.00  0.00     0.293 HD
ENDBRANCH   6   9
BRANCH   8  11
ATOM     11  O   UNL     1      -6.698  -2.375 -23.361  1.00  0.00    -0.507 OA
ATOM     12  H   UNL     1      -5.783  -2.108 -23.552  1.00  0.00     0.293 HD
ENDBRANCH   8  11
ENDBRANCH   1   3
BRANCH   2  13
ATOM     13  C   UNL     1      -4.833  -0.600 -27.448  1.00  0.00    -0.018 A 
ATOM     14  C   UNL     1      -4.765  -1.354 -28.629  1.00  0.00     0.054 A 
ATOM     15  C   UNL     1      -3.756   0.230 -27.109  1.00  0.00     0.054 A 
ATOM     16  C   UNL     1      -3.625  -1.288 -29.430  1.00  0.00     0.119 A 
ATOM     17  C   UNL     1      -2.626   0.278 -27.921  1.00  0.00     0.119 A 
ATOM     18  C   UNL     1      -2.549  -0.480 -29.082  1.00  0.00     0.092 A 
BRANCH  16  19
ATOM     19  O   UNL     1      -3.525  -2.009 -30.584  1.00  0.00    -0.508 OA
ATOM     20  H   UNL     1      -4.397  -2.381 -30.797  1.00  0.00     0.293 HD
ENDBRANCH  16  19
BRANCH  17  21
ATOM     21  O   UNL     1      -1.603   1.094 -27.535  1.00  0.00    -0.508 OA
ATOM     22  H   UNL     1      -1.641   1.200 -26.569  1.00  0.00     0.293 HD
ENDBRANCH  17  21
ENDBRANCH   2  13
TORSDOF 6
ENDMDL
MODEL 8
REMARK VINA RESULT:      -7.0      4.005      7.243
REMARK SMILES Oc1cc(O)cc(/C=C/c2ccc(O)cc2O)c1
REMARK SMILES IDX 9 1 8 2 10 3 12 4 11 5 13 6 15 7 16 8 14 9 17 11 7 13 6 14
REMARK SMILES IDX 18 15 4 16 2 17 3 18 5 19 1 21
REMARK H PARENT 14 10 17 12 5 20 1 22
ROOT
ATOM      1  C   UNL     1      -6.574   0.666 -31.163  1.00  0.00     0.012 C 
ATOM      2  C   UNL     1      -5.918  -0.239 -30.420  1.00  0.00     0.009 C 
ENDROOT
BRANCH   1   3
ATOM      3  C   UNL     1      -7.904   0.392 -31.718  1.00  0.00     0.017 A 
ATOM      4  C   UNL     1     -10.184  -0.345 -31.320  1.00  0.00     0.047 A 
ATOM      5  C   UNL     1      -8.901  -0.063 -30.845  1.00  0.00     0.016 A 
ATOM      6  C   UNL     1     -10.475  -0.172 -32.668  1.00  0.00     0.119 A 
ATOM      7  C   UNL     1      -9.504   0.284 -33.552  1.00  0.00     0.092 A 
ATOM      8  C   UNL     1      -8.226   0.568 -33.073  1.00  0.00     0.126 A 
BRANCH   6   9
ATOM      9  O   UNL     1     -11.739  -0.461 -33.089  1.00  0.00    -0.508 OA
ATOM     10  H   UNL     1     -12.260   0.359 -33.086  1.00  0.00     0.293 HD
ENDBRANCH   6   9
BRANCH   8  11
ATOM     11  O   UNL     1      -7.327   1.036 -33.995  1.00  0.00    -0.507 OA
ATOM     12  H   UNL     1      -6.481   1.194 -33.543  1.00  0.00     0.293 HD
ENDBRANCH   8  11
ENDBRANCH   1   3
BRANCH   2  13
ATOM     13  C   UNL     1      -4.583  -0.015 -29.850  1.00  0.00    -0.018 A 
ATOM     14  C   UNL     1      -3.418  -0.071 -30.628  1.00  0.00     0.054 A 
ATOM     15  C   UNL     1      -4.478   0.316 -28.492  1.00  0.00     0.054 A 
ATOM     16  C   UNL     1      -2.177   0.175 -30.040  1.00  0.00     0.119 A 
ATOM     17  C   UNL     1      -3.228   0.555 -27.924  1.00  0.00     0.119 A 
ATOM     18  C   UNL     1      -2.071   0.484 -28.689  1.00  0.00     0.092 A 
BRANCH  16  19
ATOM     19  O   UNL     1      -1.024   0.127 -30.768  1.00  0.00    -0.508 OA
ATOM     20  H   UNL     1      -0.367  -0.396 -30.280  1.00  0.00     0.293 HD
ENDBRANCH  16  19
BRANCH  17  21
ATOM     21  O   UNL     1      -3.185   0.862 -26.596  1.00  0.00    -0.508 OA
ATOM     22  H   UNL     1      -3.814   1.583 -26.425  1.00  0.00     0.293 HD
ENDBRANCH  17  21
ENDBRANCH   2  13
TORSDOF 6
ENDMDL
MODEL 9
REMARK VINA RESULT:      -7.0      4.228      5.855
REMARK SMILES Oc1cc(O)cc(/C=C/c2ccc(O)cc2O)c1
REMARK SMILES IDX 9 1 8 2 10 3 12 4 11 5 13 6 15 7 16 8 14 9 17 11 7 13 6 14
REMARK SMILES IDX 18 15 4 16 2 17 3 18 5 19 1 21
REMARK H PARENT 14 10 17 12 5 20 1 22
ROOT
ATOM      1  C   UNL     1      -5.780   2.359 -30.839  1.00  0.00     0.012 C 
ATOM      2  C   UNL     1      -7.015   2.126 -30.368  1.00  0.00     0.009 C 
ENDROOT
BRANCH   1   3
ATOM      3  C   UNL     1      -4.800   3.145 -30.081  1.00  0.00     0.017 A 
ATOM      4  C   UNL     1      -3.719   5.291 -29.728  1.00  0.00     0.047 A 
ATOM      5  C   UNL     1      -4.642   4.497 -30.413  1.00  0.00     0.016 A 
ATOM      6  C   UNL     1      -2.953   4.737 -28.709  1.00  0.00     0.119 A 
ATOM      7  C   UNL     1      -3.097   3.400 -28.357  1.00  0.00     0.092 A 
ATOM      8  C   UNL     1      -4.022   2.612 -29.041  1.00  0.00     0.126 A 
BRANCH   6   9
ATOM      9  O   UNL     1      -2.064   5.548 -28.068  1.00  0.00    -0.508 OA
ATOM     10  H   UNL     1      -1.881   5.173 -27.192  1.00  0.00     0.293 HD
ENDBRANCH   6   9
BRANCH   8  11
ATOM     11  O   UNL     1      -4.128   1.310 -28.627  1.00  0.00    -0.507 OA
ATOM     12  H   UNL     1      -4.860   1.251 -27.990  1.00  0.00     0.293 HD
ENDBRANCH   8  11
ENDBRANCH   1   3
BRANCH   2  13
ATOM     13  C   UNL     1      -8.034   1.354 -31.092  1.00  0.00    -0.018 A 
ATOM     14  C   UNL     1      -9.113   1.966 -31.746  1.00  0.00     0.054 A 
ATOM     15  C   UNL     1      -7.892  -0.038 -31.173  1.00  0.00     0.054 A 
ATOM     16  C   UNL     1     -10.037   1.186 -32.441  1.00  0.00     0.119 A 
ATOM     17  C   UNL     1      -8.829  -0.798 -31.869  1.00  0.00     0.119 A 
ATOM     18  C   UNL     1      -9.907  -0.196 -32.504  1.00  0.00     0.092 A 
BRANCH  16  19
ATOM     19  O   UNL     1     -11.099   1.750 -33.086  1.00  0.00    -0.508 OA
ATOM     20  H   UNL     1     -11.790   1.076 -33.201  1.00  0.00     0.293 HD
ENDBRANCH  16  19
BRANCH  17  21
ATOM     21  O   UNL     1      -8.647  -2.150 -31.905  1.00  0.00    -0.508 OA
ATOM     22  H   UNL     1      -9.061  -2.538 -31.115  1.00  0.00     0.293 HD
ENDBRANCH  17  21
ENDBRANCH   2  13
TORSDOF 6
ENDMDL
MODEL 10
REMARK VINA RESULT:      -7.0      3.316      4.598
REMARK SMILES Oc1cc(O)cc(/C=C/c2ccc(O)cc2O)c1
REMARK SMILES IDX 9 1 8 2 10 3 12 4 11 5 13 6 15 7 16 8 14 9 17 11 7 13 6 14
REMARK SMILES IDX 18 15 4 16 2 17 3 18 5 19 1 21
REMARK H PARENT 14 10 17 12 5 20 1 22
ROOT
ATOM      1  C   UNL     1      -5.928  -0.187 -30.551  1.00  0.00     0.012 C 
ATOM      2  C   UNL     1      -7.028   0.540 -30.302  1.00  0.00     0.009 C 
ENDROOT
BRANCH   1   3
ATOM      3  C   UNL     1      -4.656   0.078 -29.871  1.00  0.00     0.017 A 
ATOM      4  C   UNL     1      -3.519   0.836 -27.863  1.00  0.00     0.047 A 
ATOM      5  C   UNL     1      -4.700   0.560 -28.556  1.00  0.00     0.016 A 
ATOM      6  C   UNL     1      -2.291   0.628 -28.480  1.00  0.00     0.119 A 
ATOM      7  C   UNL     1      -2.222   0.144 -29.782  1.00  0.00     0.092 A 
ATOM      8  C   UNL     1      -3.402  -0.133 -30.469  1.00  0.00     0.126 A 
BRANCH   6   9
ATOM      9  O   UNL     1      -1.164   0.912 -27.767  1.00  0.00    -0.508 OA
ATOM     10  H   UNL     1      -0.886   1.817 -27.978  1.00  0.00     0.293 HD
ENDBRANCH   6   9
BRANCH   8  11
ATOM     11  O   UNL     1      -3.260  -0.629 -31.738  1.00  0.00    -0.507 OA
ATOM     12  H   UNL     1      -2.459  -1.179 -31.763  1.00  0.00     0.293 HD
ENDBRANCH   8  11
ENDBRANCH   1   3
BRANCH   2  13
ATOM     13  C   UNL     1      -8.321   0.319 -30.962  1.00  0.00    -0.018 A 
ATOM     14  C   UNL     1      -8.976   1.329 -31.681  1.00  0.00     0.054 A 
ATOM     15  C   UNL     1      -8.893  -0.959 -30.913  1.00  0.00     0.054 A 
ATOM     16  C   UNL     1     -10.191   1.058 -32.310  1.00  0.00     0.119 A 
ATOM     17  C   UNL     1     -10.108  -1.208 -31.546  1.00  0.00     0.119 A 
ATOM     18  C   UNL     1     -10.767  -0.205 -32.245  1.00  0.00     0.092 A 
BRANCH  16  19
ATOM     19  O   UNL     1     -10.855   2.018 -33.016  1.00  0.00    -0.508 OA
ATOM     20  H   UNL     1     -11.767   1.720 -33.171  1.00  0.00     0.293 HD
ENDBRANCH  16  19
BRANCH  17  21
ATOM     21  O   UNL     1     -10.624  -2.468 -31.455  1.00  0.00    -0.508 OA
ATOM     22  H   UNL     1     -10.807  -2.792 -32.354  1.00  0.00     0.293 HD
ENDBRANCH  17  21
ENDBRANCH   2  13
TORSDOF 6
ENDMDL
