MODEL 1
REMARK VINA RESULT:      -7.2      0.000      0.000
REMARK SMILES Oc1ccc(Cc2ccccc2O)cc1
REMARK SMILES IDX 6 1 7 2 9 3 10 4 8 5 11 6 12 7 13 8 5 10 4 11 14 12 3 13
REMARK SMILES IDX 15 14 2 15 1 16
REMARK H PARENT 13 9 1 17
ROOT
ATOM      1  C   UNL     1      -6.263   1.728 -31.443  1.00  0.00     0.075 C 
ENDROOT
BRANCH   1   2
ATOM      2  C   UNL     1      -5.339   0.613 -31.010  1.00  0.00    -0.002 A 
ATOM      3  C   UNL     1      -4.951  -1.383 -29.671  1.00  0.00     0.001 A 
ATOM      4  C   UNL     1      -3.669  -1.499 -30.201  1.00  0.00     0.004 A 
ATOM      5  C   UNL     1      -5.782  -0.336 -30.074  1.00  0.00     0.008 A 
ATOM      6  C   UNL     1      -3.214  -0.569 -31.135  1.00  0.00     0.046 A 
ATOM      7  C   UNL     1      -4.048   0.477 -31.535  1.00  0.00     0.119 A 
BRANCH   7   8
ATOM      8  O   UNL     1      -3.602   1.390 -32.449  1.00  0.00    -0.508 OA
ATOM      9  H   UNL     1      -2.632   1.423 -32.405  1.00  0.00     0.293 HD
ENDBRANCH   7   8
ENDBRANCH   1   2
BRANCH   1  10
ATOM     10  C   UNL     1      -7.606   1.245 -31.946  1.00  0.00    -0.043 A 
ATOM     11  C   UNL     1      -7.719   0.596 -33.185  1.00  0.00     0.008 A 
ATOM     12  C   UNL     1      -8.765   1.462 -31.186  1.00  0.00     0.008 A 
ATOM     13  C   UNL     1      -8.963   0.164 -33.651  1.00  0.00     0.046 A 
ATOM     14  C   UNL     1     -10.008   1.028 -31.650  1.00  0.00     0.046 A 
ATOM     15  C   UNL     1     -10.098   0.384 -32.876  1.00  0.00     0.115 A 
BRANCH  15  16
ATOM     16  O   UNL     1     -11.331  -0.022 -33.294  1.00  0.00    -0.508 OA
ATOM     17  H   UNL     1     -11.265  -0.942 -33.598  1.00  0.00     0.293 HD
ENDBRANCH  15  16
ENDBRANCH   1  10
TORSDOF 4
ENDMDL
MODEL 2
REMARK VINA RESULT:      -7.2      0.144      1.255
REMARK SMILES Oc1ccc(Cc2ccccc2O)cc1
REMARK SMILES IDX 6 1 7 2 9 3 10 4 8 5 11 6 12 7 13 8 5 10 4 11 14 12 3 13
REMARK SMILES IDX 15 14 2 15 1 16
REMARK H PARENT 13 9 1 17
ROOT
ATOM      1  C   UNL     1      -6.286   1.792 -31.319  1.00  0.00     0.075 C 
ENDROOT
BRANCH   1   2
ATOM      2  C   UNL     1      -5.349   0.669 -30.936  1.00  0.00    -0.002 A 
ATOM      3  C   UNL     1      -4.915  -1.342 -29.634  1.00  0.00     0.001 A 
ATOM      4  C   UNL     1      -3.656  -1.458 -30.218  1.00  0.00     0.004 A 
ATOM      5  C   UNL     1      -5.757  -0.288 -29.992  1.00  0.00     0.008 A 
ATOM      6  C   UNL     1      -3.236  -0.520 -31.161  1.00  0.00     0.046 A 
ATOM      7  C   UNL     1      -4.082   0.533 -31.515  1.00  0.00     0.119 A 
BRANCH   7   8
ATOM      8  O   UNL     1      -3.669   1.454 -32.437  1.00  0.00    -0.508 OA
ATOM      9  H   UNL     1      -2.747   1.690 -32.247  1.00  0.00     0.293 HD
ENDBRANCH   7   8
ENDBRANCH   1   2
BRANCH   1  10
ATOM     10  C   UNL     1      -7.592   1.318 -31.919  1.00  0.00    -0.043 A 
ATOM     11  C   UNL     1      -8.805   1.512 -31.243  1.00  0.00     0.008 A 
ATOM     12  C   UNL     1      -7.602   0.654 -33.155  1.00  0.00     0.008 A 
ATOM     13  C   UNL     1     -10.007   1.061 -31.795  1.00  0.00     0.046 A 
ATOM     14  C   UNL     1      -8.802   0.205 -33.708  1.00  0.00     0.046 A 
ATOM     15  C   UNL     1      -9.993   0.411 -33.026  1.00  0.00     0.115 A 
BRANCH  15  16
ATOM     16  O   UNL     1     -11.143  -0.045 -33.600  1.00  0.00    -0.508 OA
ATOM     17  H   UNL     1     -11.873   0.536 -33.330  1.00  0.00     0.293 HD
ENDBRANCH  15  16
ENDBRANCH   1  10
TORSDOF 4
ENDMDL
MODEL 3
REMARK VINA RESULT:      -7.0     19.032     21.938
REMARK SMILES Oc1ccc(Cc2ccccc2O)cc1
REMARK SMILES IDX 6 1 7 2 9 3 10 4 8 5 11 6 12 7 13 8 5 10 4 11 14 12 3 13
REMARK SMILES IDX 15 14 2 15 1 16
REMARK H PARENT 13 9 1 17
ROOT
ATOM      1  C   UNL     1       8.759  -0.186 -15.262  1.00  0.00     0.075 C 
ENDROOT
BRANCH   1   2
ATOM      2  C   UNL     1      10.032   0.606 -15.452  1.00  0.00    -0.002 A 
ATOM      3  C   UNL     1      12.435   0.645 -15.843  1.00  0.00     0.001 A 
ATOM      4  C   UNL     1      12.420   2.037 -15.846  1.00  0.00     0.004 A 
ATOM      5  C   UNL     1      11.249  -0.067 -15.650  1.00  0.00     0.008 A 
ATOM      6  C   UNL     1      11.220   2.721 -15.656  1.00  0.00     0.046 A 
ATOM      7  C   UNL     1      10.037   2.006 -15.462  1.00  0.00     0.119 A 
BRANCH   7   8
ATOM      8  O   UNL     1       8.861   2.677 -15.274  1.00  0.00    -0.508 OA
ATOM      9  H   UNL     1       9.061   3.556 -14.913  1.00  0.00     0.293 HD
ENDBRANCH   7   8
ENDBRANCH   1   2
BRANCH   1  10
ATOM     10  C   UNL     1       8.072  -0.556 -16.558  1.00  0.00    -0.043 A 
ATOM     11  C   UNL     1       6.839  -1.224 -16.553  1.00  0.00     0.008 A 
ATOM     12  C   UNL     1       8.675  -0.254 -17.788  1.00  0.00     0.008 A 
ATOM     13  C   UNL     1       6.215  -1.575 -17.753  1.00  0.00     0.046 A 
ATOM     14  C   UNL     1       8.052  -0.603 -18.987  1.00  0.00     0.046 A 
ATOM     15  C   UNL     1       6.829  -1.259 -18.961  1.00  0.00     0.115 A 
BRANCH  15  16
ATOM     16  O   UNL     1       6.255  -1.583 -20.156  1.00  0.00    -0.508 OA
ATOM     17  H   UNL     1       6.941  -1.951 -20.736  1.00  0.00     0.293 HD
ENDBRANCH  15  16
ENDBRANCH   1  10
TORSDOF 4
ENDMDL
MODEL 4
REMARK VINA RESULT:      -6.8     18.692     21.667
REMARK SMILES Oc1ccc(Cc2ccccc2O)cc1
REMARK SMILES IDX 6 1 7 2 9 3 10 4 8 5 11 6 12 7 13 8 5 10 4 11 14 12 3 13
REMARK SMILES IDX 15 14 2 15 1 16
REMARK H PARENT 13 9 1 17
ROOT
ATOM      1  C   UNL     1       7.200   0.324 -17.192  1.00  0.00     0.075 C 
ENDROOT
BRANCH   1   2
ATOM      2  C   UNL     1       6.864  -0.916 -17.988  1.00  0.00    -0.002 A 
ATOM      3  C   UNL     1       6.983  -2.157 -20.080  1.00  0.00     0.001 A 
ATOM      4  C   UNL     1       6.293  -3.218 -19.499  1.00  0.00     0.004 A 
ATOM      5  C   UNL     1       7.269  -1.015 -19.330  1.00  0.00     0.008 A 
ATOM      6  C   UNL     1       5.887  -3.139 -18.167  1.00  0.00     0.046 A 
ATOM      7  C   UNL     1       6.175  -1.994 -17.421  1.00  0.00     0.119 A 
BRANCH   7   8
ATOM      8  O   UNL     1       5.775  -1.916 -16.116  1.00  0.00    -0.508 OA
ATOM      9  H   UNL     1       6.529  -1.622 -15.579  1.00  0.00     0.293 HD
ENDBRANCH   7   8
ENDBRANCH   1   2
BRANCH   1  10
ATOM     10  C   UNL     1       8.570   0.284 -16.551  1.00  0.00    -0.043 A 
ATOM     11  C   UNL     1       9.061  -0.900 -15.980  1.00  0.00     0.008 A 
ATOM     12  C   UNL     1       9.361   1.441 -16.500  1.00  0.00     0.008 A 
ATOM     13  C   UNL     1      10.322  -0.929 -15.377  1.00  0.00     0.046 A 
ATOM     14  C   UNL     1      10.620   1.413 -15.900  1.00  0.00     0.046 A 
ATOM     15  C   UNL     1      11.091   0.230 -15.344  1.00  0.00     0.115 A 
BRANCH  15  16
ATOM     16  O   UNL     1      12.326   0.246 -14.766  1.00  0.00    -0.508 OA
ATOM     17  H   UNL     1      12.853   0.945 -15.187  1.00  0.00     0.293 HD
ENDBRANCH  15  16
ENDBRANCH   1  10
TORSDOF 4
ENDMDL
MODEL 5
REMARK VINA RESULT:      -6.7      4.772      5.979
REMARK SMILES Oc1ccc(Cc2ccccc2O)cc1
REMARK SMILES IDX 6 1 7 2 9 3 10 4 8 5 11 6 12 7 13 8 5 10 4 11 14 12 3 13
REMARK SMILES IDX 15 14 2 15 1 16
REMARK H PARENT 13 9 1 17
ROOT
ATOM      1  C   UNL     1      -2.459   1.555 -27.599  1.00  0.00     0.075 C 
ENDROOT
BRANCH   1   2
ATOM      2  C   UNL     1      -3.170   0.232 -27.768  1.00  0.00    -0.002 A 
ATOM      3  C   UNL     1      -3.445  -1.855 -28.992  1.00  0.00     0.001 A 
ATOM      4  C   UNL     1      -4.438  -2.256 -28.101  1.00  0.00     0.004 A 
ATOM      5  C   UNL     1      -2.813  -0.621 -28.826  1.00  0.00     0.008 A 
ATOM      6  C   UNL     1      -4.800  -1.424 -27.042  1.00  0.00     0.046 A 
ATOM      7  C   UNL     1      -4.166  -0.191 -26.880  1.00  0.00     0.119 A 
BRANCH   7   8
ATOM      8  O   UNL     1      -4.523   0.625 -25.843  1.00  0.00    -0.508 OA
ATOM      9  H   UNL     1      -5.078   1.342 -26.190  1.00  0.00     0.293 HD
ENDBRANCH   7   8
ENDBRANCH   1   2
BRANCH   1  10
ATOM     10  C   UNL     1      -3.053   2.675 -28.424  1.00  0.00    -0.043 A 
ATOM     11  C   UNL     1      -2.682   4.009 -28.198  1.00  0.00     0.008 A 
ATOM     12  C   UNL     1      -4.003   2.394 -29.417  1.00  0.00     0.008 A 
ATOM     13  C   UNL     1      -3.243   5.042 -28.955  1.00  0.00     0.046 A 
ATOM     14  C   UNL     1      -4.563   3.424 -30.174  1.00  0.00     0.046 A 
ATOM     15  C   UNL     1      -4.179   4.738 -29.939  1.00  0.00     0.115 A 
BRANCH  15  16
ATOM     16  O   UNL     1      -4.751   5.715 -30.700  1.00  0.00    -0.508 OA
ATOM     17  H   UNL     1      -4.514   6.577 -30.322  1.00  0.00     0.293 HD
ENDBRANCH  15  16
ENDBRANCH   1  10
TORSDOF 4
ENDMDL
MODEL 6
REMARK VINA RESULT:      -6.6      1.261      1.505
REMARK SMILES Oc1ccc(Cc2ccccc2O)cc1
REMARK SMILES IDX 6 1 7 2 9 3 10 4 8 5 11 6 12 7 13 8 5 10 4 11 14 12 3 13
REMARK SMILES IDX 15 14 2 15 1 16
REMARK H PARENT 13 9 1 17
ROOT
ATOM      1  C   UNL     1      -5.532   0.770 -31.550  1.00  0.00     0.075 C 
ENDROOT
BRANCH   1   2
ATOM      2  C   UNL     1      -5.039  -0.090 -30.409  1.00  0.00    -0.002 A 
ATOM      3  C   UNL     1      -5.338  -0.935 -28.144  1.00  0.00     0.001 A 
ATOM      4  C   UNL     1      -4.183  -1.702 -28.270  1.00  0.00     0.004 A 
ATOM      5  C   UNL     1      -5.766  -0.136 -29.207  1.00  0.00     0.008 A 
ATOM      6  C   UNL     1      -3.452  -1.672 -29.458  1.00  0.00     0.046 A 
ATOM      7  C   UNL     1      -3.883  -0.871 -30.517  1.00  0.00     0.119 A 
BRANCH   7   8
ATOM      8  O   UNL     1      -3.166  -0.841 -31.680  1.00  0.00    -0.508 OA
ATOM      9  H   UNL     1      -3.468  -0.086 -32.210  1.00  0.00     0.293 HD
ENDBRANCH   7   8
ENDBRANCH   1   2
BRANCH   1  10
ATOM     10  C   UNL     1      -7.016   0.642 -31.813  1.00  0.00    -0.043 A 
ATOM     11  C   UNL     1      -7.627  -0.619 -31.885  1.00  0.00     0.008 A 
ATOM     12  C   UNL     1      -7.800   1.789 -32.010  1.00  0.00     0.008 A 
ATOM     13  C   UNL     1      -8.997  -0.732 -32.141  1.00  0.00     0.046 A 
ATOM     14  C   UNL     1      -9.168   1.676 -32.264  1.00  0.00     0.046 A 
ATOM     15  C   UNL     1      -9.755   0.420 -32.327  1.00  0.00     0.115 A 
BRANCH  15  16
ATOM     16  O   UNL     1     -11.094   0.354 -32.579  1.00  0.00    -0.508 OA
ATOM     17  H   UNL     1     -11.354   1.154 -33.065  1.00  0.00     0.293 HD
ENDBRANCH  15  16
ENDBRANCH   1  10
TORSDOF 4
ENDMDL
MODEL 7
REMARK VINA RESULT:      -6.5      4.602      5.622
REMARK SMILES Oc1ccc(Cc2ccccc2O)cc1
REMARK SMILES IDX 6 1 7 2 9 3 10 4 8 5 11 6 12 7 13 8 5 10 4 11 14 12 3 13
REMARK SMILES IDX 15 14 2 15 1 16
REMARK H PARENT 13 9 1 17
ROOT
ATOM      1  C   UNL     1      -8.417  -2.666 -30.085  1.00  0.00     0.075 C 
ENDROOT
BRANCH   1   2
ATOM      2  C   UNL     1      -9.363  -3.693 -29.505  1.00  0.00    -0.002 A 
ATOM      3  C   UNL     1     -10.890  -5.559 -29.843  1.00  0.00     0.001 A 
ATOM      4  C   UNL     1     -11.102  -5.644 -28.469  1.00  0.00     0.004 A 
ATOM      5  C   UNL     1     -10.024  -4.592 -30.358  1.00  0.00     0.008 A 
ATOM      6  C   UNL     1     -10.450  -4.763 -27.608  1.00  0.00     0.046 A 
ATOM      7  C   UNL     1      -9.586  -3.797 -28.127  1.00  0.00     0.119 A 
BRANCH   7   8
ATOM      8  O   UNL     1      -8.948  -2.932 -27.282  1.00  0.00    -0.508 OA
ATOM      9  H   UNL     1      -8.066  -3.287 -27.085  1.00  0.00     0.293 HD
ENDBRANCH   7   8
ENDBRANCH   1   2
BRANCH   1  10
ATOM     10  C   UNL     1      -9.112  -1.569 -30.862  1.00  0.00    -0.043 A 
ATOM     11  C   UNL     1      -8.901  -1.420 -32.241  1.00  0.00     0.008 A 
ATOM     12  C   UNL     1      -9.963  -0.668 -30.205  1.00  0.00     0.008 A 
ATOM     13  C   UNL     1      -9.534  -0.397 -32.952  1.00  0.00     0.046 A 
ATOM     14  C   UNL     1     -10.597   0.353 -30.914  1.00  0.00     0.046 A 
ATOM     15  C   UNL     1     -10.379   0.481 -32.279  1.00  0.00     0.115 A 
BRANCH  15  16
ATOM     16  O   UNL     1     -11.017   1.493 -32.934  1.00  0.00    -0.508 OA
ATOM     17  H   UNL     1     -11.343   2.127 -32.276  1.00  0.00     0.293 HD
ENDBRANCH  15  16
ENDBRANCH   1  10
TORSDOF 4
ENDMDL
MODEL 8
REMARK VINA RESULT:      -6.5      1.498      5.677
REMARK SMILES Oc1ccc(Cc2ccccc2O)cc1
REMARK SMILES IDX 6 1 7 2 9 3 10 4 8 5 11 6 12 7 13 8 5 10 4 11 14 12 3 13
REMARK SMILES IDX 15 14 2 15 1 16
REMARK H PARENT 13 9 1 17
ROOT
ATOM      1  C   UNL     1      -7.684   0.239 -30.249  1.00  0.00     0.075 C 
ENDROOT
BRANCH   1   2
ATOM      2  C   UNL     1      -8.576   0.397 -31.458  1.00  0.00    -0.002 A 
ATOM      3  C   UNL     1      -9.875   1.842 -32.927  1.00  0.00     0.001 A 
ATOM      4  C   UNL     1     -10.209   0.748 -33.721  1.00  0.00     0.004 A 
ATOM      5  C   UNL     1      -9.062   1.669 -31.804  1.00  0.00     0.008 A 
ATOM      6  C   UNL     1      -9.731  -0.521 -33.395  1.00  0.00     0.046 A 
ATOM      7  C   UNL     1      -8.919  -0.689 -32.271  1.00  0.00     0.119 A 
BRANCH   7   8
ATOM      8  O   UNL     1      -8.453  -1.934 -31.951  1.00  0.00    -0.508 OA
ATOM      9  H   UNL     1      -7.579  -2.051 -32.359  1.00  0.00     0.293 HD
ENDBRANCH   7   8
ENDBRANCH   1   2
BRANCH   1  10
ATOM     10  C   UNL     1      -6.211   0.148 -30.585  1.00  0.00    -0.043 A 
ATOM     11  C   UNL     1      -5.408  -0.859 -30.030  1.00  0.00     0.008 A 
ATOM     12  C   UNL     1      -5.624   1.089 -31.444  1.00  0.00     0.008 A 
ATOM     13  C   UNL     1      -4.045  -0.930 -30.333  1.00  0.00     0.046 A 
ATOM     14  C   UNL     1      -4.264   1.017 -31.749  1.00  0.00     0.046 A 
ATOM     15  C   UNL     1      -3.486   0.010 -31.193  1.00  0.00     0.115 A 
BRANCH  15  16
ATOM     16  O   UNL     1      -2.161  -0.023 -31.516  1.00  0.00    -0.508 OA
ATOM     17  H   UNL     1      -1.696   0.630 -30.969  1.00  0.00     0.293 HD
ENDBRANCH  15  16
ENDBRANCH   1  10
TORSDOF 4
ENDMDL
MODEL 9
REMARK VINA RESULT:      -6.5      2.372      6.201
REMARK SMILES Oc1ccc(Cc2ccccc2O)cc1
REMARK SMILES IDX 6 1 7 2 9 3 10 4 8 5 11 6 12 7 13 8 5 10 4 11 14 12 3 13
REMARK SMILES IDX 15 14 2 15 1 16
REMARK H PARENT 13 9 1 17
ROOT
ATOM      1  C   UNL     1      -5.942  -1.518 -30.028  1.00  0.00     0.075 C 
ENDROOT
BRANCH   1   2
ATOM      2  C   UNL     1      -6.647  -0.668 -31.060  1.00  0.00    -0.002 A 
ATOM      3  C   UNL     1      -6.661   1.300 -32.495  1.00  0.00     0.001 A 
ATOM      4  C   UNL     1      -7.902   0.928 -33.006  1.00  0.00     0.004 A 
ATOM      5  C   UNL     1      -6.036   0.506 -31.531  1.00  0.00     0.008 A 
ATOM      6  C   UNL     1      -8.521  -0.238 -32.553  1.00  0.00     0.046 A 
ATOM      7  C   UNL     1      -7.892  -1.027 -31.588  1.00  0.00     0.119 A 
BRANCH   7   8
ATOM      8  O   UNL     1      -8.500  -2.168 -31.144  1.00  0.00    -0.508 OA
ATOM      9  H   UNL     1      -8.550  -2.134 -30.175  1.00  0.00     0.293 HD
ENDBRANCH   7   8
ENDBRANCH   1   2
BRANCH   1  10
ATOM     10  C   UNL     1      -4.777  -0.823 -29.359  1.00  0.00    -0.043 A 
ATOM     11  C   UNL     1      -4.982   0.032 -28.266  1.00  0.00     0.008 A 
ATOM     12  C   UNL     1      -3.472  -1.009 -29.840  1.00  0.00     0.008 A 
ATOM     13  C   UNL     1      -3.903   0.682 -27.659  1.00  0.00     0.046 A 
ATOM     14  C   UNL     1      -2.395  -0.362 -29.233  1.00  0.00     0.046 A 
ATOM     15  C   UNL     1      -2.617   0.477 -28.149  1.00  0.00     0.115 A 
BRANCH  15  16
ATOM     16  O   UNL     1      -1.537   1.091 -27.586  1.00  0.00    -0.508 OA
ATOM     17  H   UNL     1      -1.841   1.605 -26.821  1.00  0.00     0.293 HD
ENDBRANCH  15  16
ENDBRANCH   1  10
TORSDOF 4
ENDMDL
MODEL 10
REMARK VINA RESULT:      -6.5      1.326      1.799
REMARK SMILES Oc1ccc(Cc2ccccc2O)cc1
REMARK SMILES IDX 6 1 7 2 9 3 10 4 8 5 11 6 12 7 13 8 5 10 4 11 14 12 3 13
REMARK SMILES IDX 15 14 2 15 1 16
REMARK H PARENT 13 9 1 17
ROOT
ATOM      1  C   UNL     1      -6.293   1.946 -31.147  1.00  0.00     0.075 C 
ENDROOT
BRANCH   1   2
ATOM      2  C   UNL     1      -5.314   0.872 -30.734  1.00  0.00    -0.002 A 
ATOM      3  C   UNL     1      -3.254  -0.358 -31.156  1.00  0.00     0.001 A 
ATOM      4  C   UNL     1      -3.444  -1.092 -29.988  1.00  0.00     0.004 A 
ATOM      5  C   UNL     1      -4.181   0.620 -31.526  1.00  0.00     0.008 A 
ATOM      6  C   UNL     1      -4.561  -0.851 -29.187  1.00  0.00     0.046 A 
ATOM      7  C   UNL     1      -5.485   0.126 -29.561  1.00  0.00     0.119 A 
BRANCH   7   8
ATOM      8  O   UNL     1      -6.580   0.361 -28.777  1.00  0.00    -0.508 OA
ATOM      9  H   UNL     1      -7.115   1.056 -29.193  1.00  0.00     0.293 HD
ENDBRANCH   7   8
ENDBRANCH   1   2
BRANCH   1  10
ATOM     10  C   UNL     1      -7.520   1.413 -31.854  1.00  0.00    -0.043 A 
ATOM     11  C   UNL     1      -7.434   0.909 -33.160  1.00  0.00     0.008 A 
ATOM     12  C   UNL     1      -8.770   1.438 -31.217  1.00  0.00     0.008 A 
ATOM     13  C   UNL     1      -8.573   0.430 -33.814  1.00  0.00     0.046 A 
ATOM     14  C   UNL     1      -9.907   0.958 -31.869  1.00  0.00     0.046 A 
ATOM     15  C   UNL     1      -9.800   0.458 -33.160  1.00  0.00     0.115 A 
BRANCH  15  16
ATOM     16  O   UNL     1     -10.936   0.001 -33.761  1.00  0.00    -0.508 OA
ATOM     17  H   UNL     1     -11.638   0.658 -33.632  1.00  0.00     0.293 HD
ENDBRANCH  15  16
ENDBRANCH   1  10
TORSDOF 4
ENDMDL
