MODEL 1
REMARK VINA RESULT:      -7.1      0.000      0.000
REMARK SMILES Oc1ccc(-c2ccc(O)cc2O)c(O)c1
REMARK SMILES IDX 3 1 4 2 5 3 14 4 16 5 2 6 1 7 6 9 12 10 7 11 11 12 8 13 9 14
REMARK SMILES IDX 13 15 10 17 15 19
REMARK H PARENT 1 8 13 16 10 18 15 20
ROOT
ATOM      1  C   UNL     1      -3.674   1.330 -28.185  1.00  0.00     0.047 A 
ATOM      2  C   UNL     1      -4.764   1.189 -29.047  1.00  0.00     0.016 A 
ATOM      3  C   UNL     1      -4.638   0.509 -30.272  1.00  0.00     0.027 A 
ATOM      4  C   UNL     1      -3.379  -0.026 -30.595  1.00  0.00     0.127 A 
ATOM      5  C   UNL     1      -2.285   0.113 -29.740  1.00  0.00     0.093 A 
ATOM      6  C   UNL     1      -2.444   0.791 -28.538  1.00  0.00     0.119 A 
ENDROOT
BRANCH   6   7
ATOM      7  O   UNL     1      -1.407   0.953 -27.670  1.00  0.00    -0.508 OA
ATOM      8  H   UNL     1      -1.194   1.899 -27.613  1.00  0.00     0.293 HD
ENDBRANCH   6   7
BRANCH   3   9
ATOM      9  C   UNL     1      -5.808   0.394 -31.160  1.00  0.00     0.027 A 
ATOM     10  C   UNL     1      -6.745  -0.652 -31.058  1.00  0.00     0.127 A 
ATOM     11  C   UNL     1      -6.022   1.367 -32.153  1.00  0.00     0.016 A 
ATOM     12  C   UNL     1      -7.852  -0.725 -31.903  1.00  0.00     0.093 A 
ATOM     13  C   UNL     1      -7.127   1.297 -33.005  1.00  0.00     0.047 A 
ATOM     14  C   UNL     1      -8.033   0.252 -32.873  1.00  0.00     0.119 A 
BRANCH  10  15
ATOM     15  O   UNL     1      -6.639  -1.653 -30.129  1.00  0.00    -0.507 OA
ATOM     16  H   UNL     1      -6.305  -2.460 -30.559  1.00  0.00     0.293 HD
ENDBRANCH  10  15
BRANCH  14  17
ATOM     17  O   UNL     1      -9.098   0.223 -33.723  1.00  0.00    -0.508 OA
ATOM     18  H   UNL     1      -9.691   0.960 -33.503  1.00  0.00     0.293 HD
ENDBRANCH  14  17
ENDBRANCH   3   9
BRANCH   4  19
ATOM     19  O   UNL     1      -3.139  -0.706 -31.759  1.00  0.00    -0.507 OA
ATOM     20  H   UNL     1      -2.540  -1.454 -31.580  1.00  0.00     0.293 HD
ENDBRANCH   4  19
TORSDOF 5
ENDMDL
MODEL 2
REMARK VINA RESULT:      -7.1      0.059      5.693
REMARK SMILES Oc1ccc(-c2ccc(O)cc2O)c(O)c1
REMARK SMILES IDX 3 1 4 2 5 3 14 4 16 5 2 6 1 7 6 9 12 10 7 11 11 12 8 13 9 14
REMARK SMILES IDX 13 15 10 17 15 19
REMARK H PARENT 1 8 13 16 10 18 15 20
ROOT
ATOM      1  C   UNL     1      -7.175   1.244 -33.010  1.00  0.00     0.047 A 
ATOM      2  C   UNL     1      -6.072   1.325 -32.158  1.00  0.00     0.016 A 
ATOM      3  C   UNL     1      -5.853   0.358 -31.160  1.00  0.00     0.027 A 
ATOM      4  C   UNL     1      -6.781  -0.694 -31.055  1.00  0.00     0.127 A 
ATOM      5  C   UNL     1      -7.888  -0.779 -31.902  1.00  0.00     0.093 A 
ATOM      6  C   UNL     1      -8.074   0.193 -32.876  1.00  0.00     0.119 A 
ENDROOT
BRANCH   6   7
ATOM      7  O   UNL     1      -9.137   0.154 -33.727  1.00  0.00    -0.508 OA
ATOM      8  H   UNL     1      -9.239  -0.756 -34.054  1.00  0.00     0.293 HD
ENDBRANCH   6   7
BRANCH   3   9
ATOM      9  C   UNL     1      -4.686   0.485 -30.271  1.00  0.00     0.027 A 
ATOM     10  C   UNL     1      -3.423  -0.050 -30.586  1.00  0.00     0.127 A 
ATOM     11  C   UNL     1      -4.815   1.177 -29.053  1.00  0.00     0.016 A 
ATOM     12  C   UNL     1      -2.331   0.102 -29.731  1.00  0.00     0.093 A 
ATOM     13  C   UNL     1      -3.727   1.328 -28.190  1.00  0.00     0.047 A 
ATOM     14  C   UNL     1      -2.494   0.791 -28.537  1.00  0.00     0.119 A 
BRANCH  10  15
ATOM     15  O   UNL     1      -3.179  -0.740 -31.744  1.00  0.00    -0.507 OA
ATOM     16  H   UNL     1      -3.874  -1.411 -31.873  1.00  0.00     0.293 HD
ENDBRANCH  10  15
BRANCH  14  17
ATOM     17  O   UNL     1      -1.458   0.963 -27.668  1.00  0.00    -0.508 OA
ATOM     18  H   UNL     1      -0.837   0.224 -27.775  1.00  0.00     0.293 HD
ENDBRANCH  14  17
ENDBRANCH   3   9
BRANCH   4  19
ATOM     19  O   UNL     1      -6.671  -1.690 -30.122  1.00  0.00    -0.507 OA
ATOM     20  H   UNL     1      -6.735  -1.306 -29.229  1.00  0.00     0.293 HD
ENDBRANCH   4  19
TORSDOF 5
ENDMDL
MODEL 3
REMARK VINA RESULT:      -6.7      1.899      5.891
REMARK SMILES Oc1ccc(-c2ccc(O)cc2O)c(O)c1
REMARK SMILES IDX 3 1 4 2 5 3 14 4 16 5 2 6 1 7 6 9 12 10 7 11 11 12 8 13 9 14
REMARK SMILES IDX 13 15 10 17 15 19
REMARK H PARENT 1 8 13 16 10 18 15 20
ROOT
ATOM      1  C   UNL     1     -10.182   0.147 -31.295  1.00  0.00     0.047 A 
ATOM      2  C   UNL     1      -8.979   0.569 -30.726  1.00  0.00     0.016 A 
ATOM      3  C   UNL     1      -7.900   0.978 -31.531  1.00  0.00     0.027 A 
ATOM      4  C   UNL     1      -8.079   0.952 -32.926  1.00  0.00     0.127 A 
ATOM      5  C   UNL     1      -9.278   0.529 -33.501  1.00  0.00     0.093 A 
ATOM      6  C   UNL     1     -10.323   0.130 -32.677  1.00  0.00     0.119 A 
ENDROOT
BRANCH   6   7
ATOM      7  O   UNL     1     -11.513  -0.290 -33.189  1.00  0.00    -0.508 OA
ATOM      8  H   UNL     1     -12.165   0.424 -33.088  1.00  0.00     0.293 HD
ENDBRANCH   6   7
BRANCH   3   9
ATOM      9  C   UNL     1      -6.641   1.402 -30.894  1.00  0.00     0.027 A 
ATOM     10  C   UNL     1      -5.564   0.524 -30.671  1.00  0.00     0.127 A 
ATOM     11  C   UNL     1      -6.485   2.741 -30.494  1.00  0.00     0.016 A 
ATOM     12  C   UNL     1      -4.377   0.959 -30.081  1.00  0.00     0.093 A 
ATOM     13  C   UNL     1      -5.301   3.182 -29.898  1.00  0.00     0.047 A 
ATOM     14  C   UNL     1      -4.256   2.289 -29.698  1.00  0.00     0.119 A 
BRANCH  10  15
ATOM     15  O   UNL     1      -5.602  -0.800 -31.022  1.00  0.00    -0.507 OA
ATOM     16  H   UNL     1      -4.737  -1.065 -31.381  1.00  0.00     0.293 HD
ENDBRANCH  10  15
BRANCH  14  17
ATOM     17  O   UNL     1      -3.119   2.761 -29.115  1.00  0.00    -0.508 OA
ATOM     18  H   UNL     1      -2.356   2.472 -29.645  1.00  0.00     0.293 HD
ENDBRANCH  14  17
ENDBRANCH   3   9
BRANCH   4  19
ATOM     19  O   UNL     1      -7.099   1.327 -33.806  1.00  0.00    -0.507 OA
ATOM     20  H   UNL     1      -7.125   0.745 -34.587  1.00  0.00     0.293 HD
ENDBRANCH   4  19
TORSDOF 5
ENDMDL
MODEL 4
REMARK VINA RESULT:      -6.7      1.904      2.850
REMARK SMILES Oc1ccc(-c2ccc(O)cc2O)c(O)c1
REMARK SMILES IDX 3 1 4 2 5 3 14 4 16 5 2 6 1 7 6 9 12 10 7 11 11 12 8 13 9 14
REMARK SMILES IDX 13 15 10 17 15 19
REMARK H PARENT 1 8 13 16 10 18 15 20
ROOT
ATOM      1  C   UNL     1      -5.299   3.174 -29.805  1.00  0.00     0.047 A 
ATOM      2  C   UNL     1      -6.483   2.739 -30.404  1.00  0.00     0.016 A 
ATOM      3  C   UNL     1      -6.626   1.413 -30.851  1.00  0.00     0.027 A 
ATOM      4  C   UNL     1      -5.538   0.541 -30.668  1.00  0.00     0.127 A 
ATOM      5  C   UNL     1      -4.350   0.970 -30.073  1.00  0.00     0.093 A 
ATOM      6  C   UNL     1      -4.243   2.287 -29.644  1.00  0.00     0.119 A 
ENDROOT
BRANCH   6   7
ATOM      7  O   UNL     1      -3.105   2.753 -29.057  1.00  0.00    -0.508 OA
ATOM      8  H   UNL     1      -2.350   2.537 -29.628  1.00  0.00     0.293 HD
ENDBRANCH   6   7
BRANCH   3   9
ATOM      9  C   UNL     1      -7.886   0.996 -31.491  1.00  0.00     0.027 A 
ATOM     10  C   UNL     1      -8.068   0.987 -32.886  1.00  0.00     0.127 A 
ATOM     11  C   UNL     1      -8.963   0.574 -30.690  1.00  0.00     0.016 A 
ATOM     12  C   UNL     1      -9.267   0.571 -33.465  1.00  0.00     0.093 A 
ATOM     13  C   UNL     1     -10.168   0.160 -31.263  1.00  0.00     0.047 A 
ATOM     14  C   UNL     1     -10.310   0.160 -32.644  1.00  0.00     0.119 A 
BRANCH  10  15
ATOM     15  O   UNL     1      -7.089   1.375 -33.763  1.00  0.00    -0.507 OA
ATOM     16  H   UNL     1      -7.318   2.242 -34.142  1.00  0.00     0.293 HD
ENDBRANCH  10  15
BRANCH  14  17
ATOM     17  O   UNL     1     -11.501  -0.253 -33.161  1.00  0.00    -0.508 OA
ATOM     18  H   UNL     1     -11.924   0.500 -33.607  1.00  0.00     0.293 HD
ENDBRANCH  14  17
ENDBRANCH   3   9
BRANCH   4  19
ATOM     19  O   UNL     1      -5.563  -0.770 -31.063  1.00  0.00    -0.507 OA
ATOM     20  H   UNL     1      -5.300  -0.830 -31.999  1.00  0.00     0.293 HD
ENDBRANCH   4  19
TORSDOF 5
ENDMDL
MODEL 5
REMARK VINA RESULT:      -6.7      1.828      2.637
REMARK SMILES Oc1ccc(-c2ccc(O)cc2O)c(O)c1
REMARK SMILES IDX 3 1 4 2 5 3 14 4 16 5 2 6 1 7 6 9 12 10 7 11 11 12 8 13 9 14
REMARK SMILES IDX 13 15 10 17 15 19
REMARK H PARENT 1 8 13 16 10 18 15 20
ROOT
ATOM      1  C   UNL     1      -3.596   0.392 -27.427  1.00  0.00     0.047 A 
ATOM      2  C   UNL     1      -4.747  -0.218 -27.931  1.00  0.00     0.016 A 
ATOM      3  C   UNL     1      -4.770  -0.768 -29.225  1.00  0.00     0.027 A 
ATOM      4  C   UNL     1      -3.592  -0.686 -29.991  1.00  0.00     0.127 A 
ATOM      5  C   UNL     1      -2.440  -0.075 -29.495  1.00  0.00     0.093 A 
ATOM      6  C   UNL     1      -2.452   0.459 -28.212  1.00  0.00     0.119 A 
ENDROOT
BRANCH   6   7
ATOM      7  O   UNL     1      -1.352   1.064 -27.683  1.00  0.00    -0.508 OA
ATOM      8  H   UNL     1      -0.585   0.481 -27.811  1.00  0.00     0.293 HD
ENDBRANCH   6   7
BRANCH   3   9
ATOM      9  C   UNL     1      -6.007  -1.391 -29.726  1.00  0.00     0.027 A 
ATOM     10  C   UNL     1      -6.731  -0.880 -30.820  1.00  0.00     0.127 A 
ATOM     11  C   UNL     1      -6.499  -2.552 -29.104  1.00  0.00     0.016 A 
ATOM     12  C   UNL     1      -7.891  -1.502 -31.283  1.00  0.00     0.093 A 
ATOM     13  C   UNL     1      -7.662  -3.177 -29.560  1.00  0.00     0.047 A 
ATOM     14  C   UNL     1      -8.348  -2.648 -30.645  1.00  0.00     0.119 A 
BRANCH  10  15
ATOM     15  O   UNL     1      -6.346   0.243 -31.503  1.00  0.00    -0.507 OA
ATOM     16  H   UNL     1      -7.136   0.715 -31.822  1.00  0.00     0.293 HD
ENDBRANCH  10  15
BRANCH  14  17
ATOM     17  O   UNL     1      -9.477  -3.290 -31.058  1.00  0.00    -0.508 OA
ATOM     18  H   UNL     1      -9.219  -4.106 -31.518  1.00  0.00     0.293 HD
ENDBRANCH  14  17
ENDBRANCH   3   9
BRANCH   4  19
ATOM     19  O   UNL     1      -3.499  -1.185 -31.263  1.00  0.00    -0.507 OA
ATOM     20  H   UNL     1      -4.216  -0.816 -31.809  1.00  0.00     0.293 HD
ENDBRANCH   4  19
TORSDOF 5
ENDMDL
MODEL 6
REMARK VINA RESULT:      -6.6      1.934      5.864
REMARK SMILES Oc1ccc(-c2ccc(O)cc2O)c(O)c1
REMARK SMILES IDX 3 1 4 2 5 3 14 4 16 5 2 6 1 7 6 9 12 10 7 11 11 12 8 13 9 14
REMARK SMILES IDX 13 15 10 17 15 19
REMARK H PARENT 1 8 13 16 10 18 15 20
ROOT
ATOM      1  C   UNL     1      -7.832  -3.224 -29.337  1.00  0.00     0.047 A 
ATOM      2  C   UNL     1      -6.668  -2.589 -28.897  1.00  0.00     0.016 A 
ATOM      3  C   UNL     1      -6.143  -1.480 -29.583  1.00  0.00     0.027 A 
ATOM      4  C   UNL     1      -6.833  -1.031 -30.724  1.00  0.00     0.127 A 
ATOM      5  C   UNL     1      -7.994  -1.663 -31.170  1.00  0.00     0.093 A 
ATOM      6  C   UNL     1      -8.485  -2.756 -30.469  1.00  0.00     0.119 A 
ENDROOT
BRANCH   6   7
ATOM      7  O   UNL     1      -9.616  -3.406 -30.864  1.00  0.00    -0.508 OA
ATOM      8  H   UNL     1      -9.611  -4.299 -30.481  1.00  0.00     0.293 HD
ENDBRANCH   6   7
BRANCH   3   9
ATOM      9  C   UNL     1      -4.905  -0.846 -29.097  1.00  0.00     0.027 A 
ATOM     10  C   UNL     1      -3.655  -1.036 -29.715  1.00  0.00     0.127 A 
ATOM     11  C   UNL     1      -4.955  -0.003 -27.972  1.00  0.00     0.016 A 
ATOM     12  C   UNL     1      -2.503  -0.408 -29.241  1.00  0.00     0.093 A 
ATOM     13  C   UNL     1      -3.804   0.625 -27.490  1.00  0.00     0.047 A 
ATOM     14  C   UNL     1      -2.588   0.419 -28.128  1.00  0.00     0.119 A 
BRANCH  10  15
ATOM     15  O   UNL     1      -3.487  -1.833 -30.816  1.00  0.00    -0.507 OA
ATOM     16  H   UNL     1      -3.604  -1.299 -31.623  1.00  0.00     0.293 HD
ENDBRANCH  10  15
BRANCH  14  17
ATOM     17  O   UNL     1      -1.491   1.052 -27.626  1.00  0.00    -0.508 OA
ATOM     18  H   UNL     1      -0.989   1.436 -28.365  1.00  0.00     0.293 HD
ENDBRANCH  14  17
ENDBRANCH   3   9
BRANCH   4  19
ATOM     19  O   UNL     1      -6.414   0.038 -31.471  1.00  0.00    -0.507 OA
ATOM     20  H   UNL     1      -6.193  -0.263 -32.370  1.00  0.00     0.293 HD
ENDBRANCH   4  19
TORSDOF 5
ENDMDL
MODEL 7
REMARK VINA RESULT:      -6.5      1.836      2.305
REMARK SMILES Oc1ccc(-c2ccc(O)cc2O)c(O)c1
REMARK SMILES IDX 3 1 4 2 5 3 14 4 16 5 2 6 1 7 6 9 12 10 7 11 11 12 8 13 9 14
REMARK SMILES IDX 13 15 10 17 15 19
REMARK H PARENT 1 8 13 16 10 18 15 20
ROOT
ATOM      1  C   UNL     1      -5.190   3.192 -29.759  1.00  0.00     0.047 A 
ATOM      2  C   UNL     1      -6.339   2.743 -30.414  1.00  0.00     0.016 A 
ATOM      3  C   UNL     1      -6.435   1.421 -30.886  1.00  0.00     0.027 A 
ATOM      4  C   UNL     1      -5.337   0.569 -30.671  1.00  0.00     0.127 A 
ATOM      5  C   UNL     1      -4.185   1.012 -30.019  1.00  0.00     0.093 A 
ATOM      6  C   UNL     1      -4.123   2.323 -29.567  1.00  0.00     0.119 A 
ENDROOT
BRANCH   6   7
ATOM      7  O   UNL     1      -3.021   2.803 -28.924  1.00  0.00    -0.508 OA
ATOM      8  H   UNL     1      -3.232   2.907 -27.982  1.00  0.00     0.293 HD
ENDBRANCH   6   7
BRANCH   3   9
ATOM      9  C   UNL     1      -7.658   0.989 -31.585  1.00  0.00     0.027 A 
ATOM     10  C   UNL     1      -8.758   0.418 -30.919  1.00  0.00     0.127 A 
ATOM     11  C   UNL     1      -7.754   1.155 -32.979  1.00  0.00     0.016 A 
ATOM     12  C   UNL     1      -9.910   0.034 -31.606  1.00  0.00     0.093 A 
ATOM     13  C   UNL     1      -8.903   0.768 -33.674  1.00  0.00     0.047 A 
ATOM     14  C   UNL     1      -9.971   0.212 -32.982  1.00  0.00     0.119 A 
BRANCH  10  15
ATOM     15  O   UNL     1      -8.777   0.211 -29.565  1.00  0.00    -0.507 OA
ATOM     16  H   UNL     1      -8.380   0.978 -29.114  1.00  0.00     0.293 HD
ENDBRANCH  10  15
BRANCH  14  17
ATOM     17  O   UNL     1     -11.073  -0.149 -33.698  1.00  0.00    -0.508 OA
ATOM     18  H   UNL     1     -10.781  -0.563 -34.527  1.00  0.00     0.293 HD
ENDBRANCH  14  17
ENDBRANCH   3   9
BRANCH   4  19
ATOM     19  O   UNL     1      -5.319  -0.736 -31.087  1.00  0.00    -0.507 OA
ATOM     20  H   UNL     1      -6.120  -1.189 -30.768  1.00  0.00     0.293 HD
ENDBRANCH   4  19
TORSDOF 5
ENDMDL
MODEL 8
REMARK VINA RESULT:      -6.5      1.072      5.703
REMARK SMILES Oc1ccc(-c2ccc(O)cc2O)c(O)c1
REMARK SMILES IDX 3 1 4 2 5 3 14 4 16 5 2 6 1 7 6 9 12 10 7 11 11 12 8 13 9 14
REMARK SMILES IDX 13 15 10 17 15 19
REMARK H PARENT 1 8 13 16 10 18 15 20
ROOT
ATOM      1  C   UNL     1      -7.323   1.074 -33.041  1.00  0.00     0.047 A 
ATOM      2  C   UNL     1      -6.238   1.217 -32.174  1.00  0.00     0.016 A 
ATOM      3  C   UNL     1      -6.015   0.298 -31.132  1.00  0.00     0.027 A 
ATOM      4  C   UNL     1      -6.920  -0.771 -31.000  1.00  0.00     0.127 A 
ATOM      5  C   UNL     1      -8.009  -0.917 -31.861  1.00  0.00     0.093 A 
ATOM      6  C   UNL     1      -8.199   0.009 -32.878  1.00  0.00     0.119 A 
ENDROOT
BRANCH   6   7
ATOM      7  O   UNL     1      -9.246  -0.091 -33.745  1.00  0.00    -0.508 OA
ATOM      8  H   UNL     1      -9.053   0.450 -34.529  1.00  0.00     0.293 HD
ENDBRANCH   6   7
BRANCH   3   9
ATOM      9  C   UNL     1      -4.867   0.490 -30.229  1.00  0.00     0.027 A 
ATOM     10  C   UNL     1      -4.942   1.257 -29.051  1.00  0.00     0.127 A 
ATOM     11  C   UNL     1      -3.637  -0.120 -30.534  1.00  0.00     0.016 A 
ATOM     12  C   UNL     1      -3.842   1.407 -28.206  1.00  0.00     0.093 A 
ATOM     13  C   UNL     1      -2.530   0.030 -29.694  1.00  0.00     0.047 A 
ATOM     14  C   UNL     1      -2.642   0.791 -28.537  1.00  0.00     0.119 A 
BRANCH  10  15
ATOM     15  O   UNL     1      -6.087   1.894 -28.654  1.00  0.00    -0.507 OA
ATOM     16  H   UNL     1      -5.874   2.537 -27.955  1.00  0.00     0.293 HD
ENDBRANCH  10  15
BRANCH  14  17
ATOM     17  O   UNL     1      -1.539   0.909 -27.746  1.00  0.00    -0.508 OA
ATOM     18  H   UNL     1      -0.957   1.590 -28.125  1.00  0.00     0.293 HD
ENDBRANCH  14  17
ENDBRANCH   3   9
BRANCH   4  19
ATOM     19  O   UNL     1      -6.804  -1.724 -30.024  1.00  0.00    -0.507 OA
ATOM     20  H   UNL     1      -7.538  -2.360 -30.103  1.00  0.00     0.293 HD
ENDBRANCH   4  19
TORSDOF 5
ENDMDL
MODEL 9
REMARK VINA RESULT:      -6.4      2.149      3.337
REMARK SMILES Oc1ccc(-c2ccc(O)cc2O)c(O)c1
REMARK SMILES IDX 3 1 4 2 5 3 14 4 16 5 2 6 1 7 6 9 12 10 7 11 11 12 8 13 9 14
REMARK SMILES IDX 13 15 10 17 15 19
REMARK H PARENT 1 8 13 16 10 18 15 20
ROOT
ATOM      1  C   UNL     1      -2.635  -0.725 -29.037  1.00  0.00     0.047 A 
ATOM      2  C   UNL     1      -3.808  -1.338 -29.482  1.00  0.00     0.016 A 
ATOM      3  C   UNL     1      -5.071  -0.868 -29.078  1.00  0.00     0.027 A 
ATOM      4  C   UNL     1      -5.109   0.243 -28.216  1.00  0.00     0.127 A 
ATOM      5  C   UNL     1      -3.940   0.859 -27.766  1.00  0.00     0.093 A 
ATOM      6  C   UNL     1      -2.710   0.368 -28.183  1.00  0.00     0.119 A 
ENDROOT
BRANCH   6   7
ATOM      7  O   UNL     1      -1.541   0.935 -27.772  1.00  0.00    -0.508 OA
ATOM      8  H   UNL     1      -0.961   0.236 -27.427  1.00  0.00     0.293 HD
ENDBRANCH   6   7
BRANCH   3   9
ATOM      9  C   UNL     1      -6.285  -1.550 -29.557  1.00  0.00     0.027 A 
ATOM     10  C   UNL     1      -6.980  -1.152 -30.715  1.00  0.00     0.127 A 
ATOM     11  C   UNL     1      -6.783  -2.657 -28.846  1.00  0.00     0.016 A 
ATOM     12  C   UNL     1      -8.118  -1.828 -31.153  1.00  0.00     0.093 A 
ATOM     13  C   UNL     1      -7.926  -3.336 -29.278  1.00  0.00     0.047 A 
ATOM     14  C   UNL     1      -8.583  -2.917 -30.428  1.00  0.00     0.119 A 
BRANCH  10  15
ATOM     15  O   UNL     1      -6.585  -0.090 -31.486  1.00  0.00    -0.507 OA
ATOM     16  H   UNL     1      -7.362   0.454 -31.708  1.00  0.00     0.293 HD
ENDBRANCH  10  15
BRANCH  14  17
ATOM     17  O   UNL     1      -9.691  -3.609 -30.814  1.00  0.00    -0.508 OA
ATOM     18  H   UNL     1      -9.928  -3.337 -31.716  1.00  0.00     0.293 HD
ENDBRANCH  14  17
ENDBRANCH   3   9
BRANCH   4  19
ATOM     19  O   UNL     1      -6.280   0.786 -27.758  1.00  0.00    -0.507 OA
ATOM     20  H   UNL     1      -7.028   0.233 -28.046  1.00  0.00     0.293 HD
ENDBRANCH   4  19
TORSDOF 5
ENDMDL
MODEL 10
REMARK VINA RESULT:      -6.4      1.837      5.994
REMARK SMILES Oc1ccc(-c2ccc(O)cc2O)c(O)c1
REMARK SMILES IDX 3 1 4 2 5 3 14 4 16 5 2 6 1 7 6 9 12 10 7 11 11 12 8 13 9 14
REMARK SMILES IDX 13 15 10 17 15 19
REMARK H PARENT 1 8 13 16 10 18 15 20
ROOT
ATOM      1  C   UNL     1      -9.325   1.063 -33.428  1.00  0.00     0.047 A 
ATOM      2  C   UNL     1      -8.147   1.457 -32.791  1.00  0.00     0.016 A 
ATOM      3  C   UNL     1      -7.816   0.972 -31.513  1.00  0.00     0.027 A 
ATOM      4  C   UNL     1      -8.710   0.073 -30.904  1.00  0.00     0.127 A 
ATOM      5  C   UNL     1      -9.890  -0.323 -31.534  1.00  0.00     0.093 A 
ATOM      6  C   UNL     1     -10.187   0.176 -32.796  1.00  0.00     0.119 A 
ENDROOT
BRANCH   6   7
ATOM      7  O   UNL     1     -11.326  -0.181 -33.453  1.00  0.00    -0.508 OA
ATOM      8  H   UNL     1     -11.310  -1.141 -33.603  1.00  0.00     0.293 HD
ENDBRANCH   6   7
BRANCH   3   9
ATOM      9  C   UNL     1      -6.571   1.423 -30.867  1.00  0.00     0.027 A 
ATOM     10  C   UNL     1      -5.469   0.574 -30.656  1.00  0.00     0.127 A 
ATOM     11  C   UNL     1      -6.456   2.759 -30.443  1.00  0.00     0.016 A 
ATOM     12  C   UNL     1      -4.296   1.034 -30.056  1.00  0.00     0.093 A 
ATOM     13  C   UNL     1      -5.286   3.226 -29.838  1.00  0.00     0.047 A 
ATOM     14  C   UNL     1      -4.216   2.360 -29.651  1.00  0.00     0.119 A 
BRANCH  10  15
ATOM     15  O   UNL     1      -5.467  -0.744 -31.028  1.00  0.00    -0.507 OA
ATOM     16  H   UNL     1      -5.458  -0.806 -32.000  1.00  0.00     0.293 HD
ENDBRANCH  10  15
BRANCH  14  17
ATOM     17  O   UNL     1      -3.093   2.856 -29.058  1.00  0.00    -0.508 OA
ATOM     18  H   UNL     1      -3.093   3.823 -29.156  1.00  0.00     0.293 HD
ENDBRANCH  14  17
ENDBRANCH   3   9
BRANCH   4  19
ATOM     19  O   UNL     1      -8.492  -0.463 -29.662  1.00  0.00    -0.507 OA
ATOM     20  H   UNL     1      -9.307  -0.396 -29.133  1.00  0.00     0.293 HD
ENDBRANCH   4  19
TORSDOF 5
ENDMDL
