MODEL 1
REMARK VINA RESULT:      -6.0      0.000      0.000
REMARK SMILES C[C@H]1C=CC[C@@H]2CC=C[C@H]21
REMARK SMILES IDX 1 1 2 2 3 3 4 4 5 5 6 6 10 7 9 8 8 9 7 10
REMARK H PARENT
ROOT
ATOM      1  C   UNL     1      -4.641  -0.927 -30.359  1.00  0.00     0.013 C 
ATOM      2  C   UNL     1      -3.416  -1.225 -29.494  1.00  0.00     0.015 C 
ATOM      3  C   UNL     1      -2.358  -0.148 -29.695  1.00  0.00    -0.028 C 
ATOM      4  C   UNL     1      -1.990   0.732 -28.743  1.00  0.00    -0.031 C 
ATOM      5  C   UNL     1      -2.622   0.800 -27.371  1.00  0.00     0.031 C 
ATOM      6  C   UNL     1      -3.925   0.015 -27.357  1.00  0.00     0.004 C 
ATOM      7  C   UNL     1      -3.713  -1.369 -27.990  1.00  0.00     0.022 C 
ATOM      8  C   UNL     1      -4.925  -2.091 -27.483  1.00  0.00    -0.027 C 
ATOM      9  C   UNL     1      -5.381  -1.504 -26.366  1.00  0.00    -0.031 C 
ATOM     10  C   UNL     1      -4.578  -0.281 -26.011  1.00  0.00     0.031 C 
ENDROOT
TORSDOF 0
ENDMDL
MODEL 2
REMARK VINA RESULT:      -5.7      0.857      2.492
REMARK SMILES C[C@H]1C=CC[C@@H]2CC=C[C@H]21
REMARK SMILES IDX 1 1 2 2 3 3 4 4 5 5 6 6 10 7 9 8 8 9 7 10
REMARK H PARENT
ROOT
ATOM      1  C   UNL     1      -1.956   0.990 -27.921  1.00  0.00     0.013 C 
ATOM      2  C   UNL     1      -3.237   0.868 -28.746  1.00  0.00     0.015 C 
ATOM      3  C   UNL     1      -2.909   0.405 -30.160  1.00  0.00    -0.028 C 
ATOM      4  C   UNL     1      -3.262  -0.795 -30.660  1.00  0.00    -0.031 C 
ATOM      5  C   UNL     1      -3.981  -1.859 -29.862  1.00  0.00     0.031 C 
ATOM      6  C   UNL     1      -3.914  -1.534 -28.376  1.00  0.00     0.004 C 
ATOM      7  C   UNL     1      -4.302  -0.065 -28.142  1.00  0.00     0.022 C 
ATOM      8  C   UNL     1      -4.597  -0.092 -26.673  1.00  0.00    -0.027 C 
ATOM      9  C   UNL     1      -4.911  -1.338 -26.285  1.00  0.00    -0.031 C 
ATOM     10  C   UNL     1      -4.808  -2.318 -27.422  1.00  0.00     0.031 C 
ENDROOT
TORSDOF 0
ENDMDL
MODEL 3
REMARK VINA RESULT:      -5.5      9.362     10.618
REMARK SMILES C[C@H]1C=CC[C@@H]2CC=C[C@H]21
REMARK SMILES IDX 1 1 2 2 3 3 4 4 5 5 6 6 10 7 9 8 8 9 7 10
REMARK H PARENT
ROOT
ATOM      1  C   UNL     1       0.453  -8.201 -27.392  1.00  0.00     0.013 C 
ATOM      2  C   UNL     1      -0.780  -8.691 -26.632  1.00  0.00     0.015 C 
ATOM      3  C   UNL     1      -2.021  -8.556 -27.504  1.00  0.00    -0.028 C 
ATOM      4  C   UNL     1      -2.722  -9.602 -27.984  1.00  0.00    -0.031 C 
ATOM      5  C   UNL     1      -2.331 -11.046 -27.767  1.00  0.00     0.031 C 
ATOM      6  C   UNL     1      -0.895 -11.130 -27.268  1.00  0.00     0.004 C 
ATOM      7  C   UNL     1      -0.679 -10.138 -26.115  1.00  0.00     0.022 C 
ATOM      8  C   UNL     1       0.581 -10.685 -25.516  1.00  0.00    -0.027 C 
ATOM      9  C   UNL     1       0.717 -11.983 -25.827  1.00  0.00    -0.031 C 
ATOM     10  C   UNL     1      -0.395 -12.462 -26.721  1.00  0.00     0.031 C 
ENDROOT
TORSDOF 0
ENDMDL
MODEL 4
REMARK VINA RESULT:      -5.4      0.989      3.962
REMARK SMILES C[C@H]1C=CC[C@@H]2CC=C[C@H]21
REMARK SMILES IDX 1 1 2 2 3 3 4 4 5 5 6 6 10 7 9 8 8 9 7 10
REMARK H PARENT
ROOT
ATOM      1  C   UNL     1      -4.382   0.136 -26.619  1.00  0.00     0.013 C 
ATOM      2  C   UNL     1      -4.161  -1.230 -27.270  1.00  0.00     0.015 C 
ATOM      3  C   UNL     1      -5.487  -1.965 -27.414  1.00  0.00    -0.028 C 
ATOM      4  C   UNL     1      -6.072  -2.237 -28.596  1.00  0.00    -0.031 C 
ATOM      5  C   UNL     1      -5.514  -1.798 -29.931  1.00  0.00     0.031 C 
ATOM      6  C   UNL     1      -4.446  -0.733 -29.726  1.00  0.00     0.004 C 
ATOM      7  C   UNL     1      -3.458  -1.181 -28.639  1.00  0.00     0.022 C 
ATOM      8  C   UNL     1      -2.311  -0.255 -28.913  1.00  0.00    -0.027 C 
ATOM      9  C   UNL     1      -2.354   0.173 -30.185  1.00  0.00    -0.031 C 
ATOM     10  C   UNL     1      -3.562  -0.357 -30.911  1.00  0.00     0.031 C 
ENDROOT
TORSDOF 0
ENDMDL
MODEL 5
REMARK VINA RESULT:      -5.4      4.778      6.880
REMARK SMILES C[C@H]1C=CC[C@@H]2CC=C[C@H]21
REMARK SMILES IDX 1 1 2 2 3 3 4 4 5 5 6 6 10 7 9 8 8 9 7 10
REMARK H PARENT
ROOT
ATOM      1  C   UNL     1     -10.513  -0.216 -30.536  1.00  0.00     0.013 C 
ATOM      2  C   UNL     1      -9.980  -0.806 -31.843  1.00  0.00     0.015 C 
ATOM      3  C   UNL     1     -10.506  -0.010 -33.030  1.00  0.00    -0.028 C 
ATOM      4  C   UNL     1      -9.731   0.747 -33.831  1.00  0.00    -0.031 C 
ATOM      5  C   UNL     1      -8.248   0.949 -33.618  1.00  0.00     0.031 C 
ATOM      6  C   UNL     1      -7.854   0.497 -32.219  1.00  0.00     0.004 C 
ATOM      7  C   UNL     1      -8.445  -0.891 -31.928  1.00  0.00     0.022 C 
ATOM      8  C   UNL     1      -7.604  -1.308 -30.760  1.00  0.00    -0.027 C 
ATOM      9  C   UNL     1      -6.439  -0.640 -30.766  1.00  0.00    -0.031 C 
ATOM     10  C   UNL     1      -6.371   0.352 -31.896  1.00  0.00     0.031 C 
ENDROOT
TORSDOF 0
ENDMDL
MODEL 6
REMARK VINA RESULT:      -5.4      2.039      3.274
REMARK SMILES C[C@H]1C=CC[C@@H]2CC=C[C@H]21
REMARK SMILES IDX 1 1 2 2 3 3 4 4 5 5 6 6 10 7 9 8 8 9 7 10
REMARK H PARENT
ROOT
ATOM      1  C   UNL     1      -4.590  -1.484 -29.708  1.00  0.00     0.013 C 
ATOM      2  C   UNL     1      -3.916  -0.445 -30.605  1.00  0.00     0.015 C 
ATOM      3  C   UNL     1      -4.963   0.305 -31.418  1.00  0.00    -0.028 C 
ATOM      4  C   UNL     1      -5.251   1.610 -31.251  1.00  0.00    -0.031 C 
ATOM      5  C   UNL     1      -4.612   2.484 -30.196  1.00  0.00     0.031 C 
ATOM      6  C   UNL     1      -3.907   1.622 -29.160  1.00  0.00     0.004 C 
ATOM      7  C   UNL     1      -3.031   0.569 -29.858  1.00  0.00     0.022 C 
ATOM      8  C   UNL     1      -2.135   0.165 -28.727  1.00  0.00    -0.027 C 
ATOM      9  C   UNL     1      -2.075   1.143 -27.809  1.00  0.00    -0.031 C 
ATOM     10  C   UNL     1      -2.966   2.301 -28.171  1.00  0.00     0.031 C 
ENDROOT
TORSDOF 0
ENDMDL
MODEL 7
REMARK VINA RESULT:      -5.3      5.234      6.301
REMARK SMILES C[C@H]1C=CC[C@@H]2CC=C[C@H]21
REMARK SMILES IDX 1 1 2 2 3 3 4 4 5 5 6 6 10 7 9 8 8 9 7 10
REMARK H PARENT
ROOT
ATOM      1  C   UNL     1     -10.346   0.156 -33.717  1.00  0.00     0.013 C 
ATOM      2  C   UNL     1      -8.922  -0.317 -33.423  1.00  0.00     0.015 C 
ATOM      3  C   UNL     1      -7.921   0.769 -33.792  1.00  0.00    -0.028 C 
ATOM      4  C   UNL     1      -7.173   1.440 -32.895  1.00  0.00    -0.031 C 
ATOM      5  C   UNL     1      -7.272   1.239 -31.400  1.00  0.00     0.031 C 
ATOM      6  C   UNL     1      -8.545   0.477 -31.058  1.00  0.00     0.004 C 
ATOM      7  C   UNL     1      -8.681  -0.755 -31.967  1.00  0.00     0.022 C 
ATOM      8  C   UNL     1      -9.689  -1.553 -31.196  1.00  0.00    -0.027 C 
ATOM      9  C   UNL     1      -9.673  -1.196 -29.903  1.00  0.00    -0.031 C 
ATOM     10  C   UNL     1      -8.702  -0.075 -29.646  1.00  0.00     0.031 C 
ENDROOT
TORSDOF 0
ENDMDL
MODEL 8
REMARK VINA RESULT:      -5.3      1.969      3.859
REMARK SMILES C[C@H]1C=CC[C@@H]2CC=C[C@H]21
REMARK SMILES IDX 1 1 2 2 3 3 4 4 5 5 6 6 10 7 9 8 8 9 7 10
REMARK H PARENT
ROOT
ATOM      1  C   UNL     1      -3.830   0.100 -26.868  1.00  0.00     0.013 C 
ATOM      2  C   UNL     1      -2.933   0.081 -28.106  1.00  0.00     0.015 C 
ATOM      3  C   UNL     1      -3.155  -1.202 -28.895  1.00  0.00    -0.028 C 
ATOM      4  C   UNL     1      -3.716  -1.246 -30.119  1.00  0.00    -0.031 C 
ATOM      5  C   UNL     1      -4.250  -0.030 -30.843  1.00  0.00     0.031 C 
ATOM      6  C   UNL     1      -4.394   1.134 -29.873  1.00  0.00     0.004 C 
ATOM      7  C   UNL     1      -3.109   1.290 -29.043  1.00  0.00     0.022 C 
ATOM      8  C   UNL     1      -3.287   2.683 -28.522  1.00  0.00    -0.027 C 
ATOM      9  C   UNL     1      -4.114   3.376 -29.321  1.00  0.00    -0.031 C 
ATOM     10  C   UNL     1      -4.646   2.525 -30.444  1.00  0.00     0.031 C 
ENDROOT
TORSDOF 0
ENDMDL
MODEL 9
REMARK VINA RESULT:      -5.3      0.977      3.238
REMARK SMILES C[C@H]1C=CC[C@@H]2CC=C[C@H]21
REMARK SMILES IDX 1 1 2 2 3 3 4 4 5 5 6 6 10 7 9 8 8 9 7 10
REMARK H PARENT
ROOT
ATOM      1  C   UNL     1      -4.707  -2.255 -27.735  1.00  0.00     0.013 C 
ATOM      2  C   UNL     1      -4.824  -0.742 -27.919  1.00  0.00     0.015 C 
ATOM      3  C   UNL     1      -4.330  -0.021 -26.672  1.00  0.00    -0.028 C 
ATOM      4  C   UNL     1      -3.218   0.739 -26.632  1.00  0.00    -0.031 C 
ATOM      5  C   UNL     1      -2.286   0.927 -27.807  1.00  0.00     0.031 C 
ATOM      6  C   UNL     1      -2.574  -0.119 -28.875  1.00  0.00     0.004 C 
ATOM      7  C   UNL     1      -4.084  -0.188 -29.151  1.00  0.00     0.022 C 
ATOM      8  C   UNL     1      -4.089  -0.898 -30.470  1.00  0.00    -0.027 C 
ATOM      9  C   UNL     1      -2.913  -0.729 -31.093  1.00  0.00    -0.031 C 
ATOM     10  C   UNL     1      -1.946   0.061 -30.253  1.00  0.00     0.031 C 
ENDROOT
TORSDOF 0
ENDMDL
MODEL 10
REMARK VINA RESULT:      -5.3      1.973      3.934
REMARK SMILES C[C@H]1C=CC[C@@H]2CC=C[C@H]21
REMARK SMILES IDX 1 1 2 2 3 3 4 4 5 5 6 6 10 7 9 8 8 9 7 10
REMARK H PARENT
ROOT
ATOM      1  C   UNL     1      -3.275   1.816 -28.772  1.00  0.00     0.013 C 
ATOM      2  C   UNL     1      -2.937   0.651 -29.704  1.00  0.00     0.015 C 
ATOM      3  C   UNL     1      -2.658  -0.607 -28.891  1.00  0.00    -0.028 C 
ATOM      4  C   UNL     1      -3.447  -1.699 -28.899  1.00  0.00    -0.031 C 
ATOM      5  C   UNL     1      -4.743  -1.793 -29.671  1.00  0.00     0.031 C 
ATOM      6  C   UNL     1      -5.190  -0.407 -30.115  1.00  0.00     0.004 C 
ATOM      7  C   UNL     1      -4.014   0.343 -30.760  1.00  0.00     0.022 C 
ATOM      8  C   UNL     1      -4.749   1.427 -31.489  1.00  0.00    -0.027 C 
ATOM      9  C   UNL     1      -6.015   1.051 -31.727  1.00  0.00    -0.031 C 
ATOM     10  C   UNL     1      -6.314  -0.302 -31.140  1.00  0.00     0.031 C 
ENDROOT
TORSDOF 0
ENDMDL
