MODEL 1
REMARK VINA RESULT:      -5.7      0.000      0.000
REMARK SMILES CC1=CC[C@@H]2C[C@H]1C2(C)C
REMARK SMILES IDX 1 1 2 2 3 3 4 4 5 5 6 6 7 7 8 8 9 9 10 10
REMARK H PARENT
ROOT
ATOM      1  C   UNL     1      -7.244   2.155 -30.409  1.00  0.00     0.039 C 
ATOM      2  C   UNL     1      -7.853   1.598 -31.650  1.00  0.00    -0.074 C 
ATOM      3  C   UNL     1      -7.194   1.363 -32.804  1.00  0.00    -0.027 C 
ATOM      4  C   UNL     1      -7.914   0.775 -34.002  1.00  0.00     0.031 C 
ATOM      5  C   UNL     1      -9.397   0.546 -33.642  1.00  0.00    -0.000 C 
ATOM      6  C   UNL     1      -9.987   1.832 -32.974  1.00  0.00     0.013 C 
ATOM      7  C   UNL     1      -9.326   1.272 -31.661  1.00  0.00     0.021 C 
ATOM      8  C   UNL     1      -9.663  -0.173 -32.247  1.00  0.00    -0.026 C 
ATOM      9  C   UNL     1      -8.741  -1.338 -31.868  1.00  0.00     0.012 C 
ATOM     10  C   UNL     1     -11.114  -0.640 -32.018  1.00  0.00     0.012 C 
ENDROOT
TORSDOF 0
ENDMDL
MODEL 2
REMARK VINA RESULT:      -5.6      5.037      7.227
REMARK SMILES CC1=CC[C@@H]2C[C@H]1C2(C)C
REMARK SMILES IDX 1 1 2 2 3 3 4 4 5 5 6 6 7 7 8 8 9 9 10 10
REMARK H PARENT
ROOT
ATOM      1  C   UNL     1      -4.870  -1.235 -26.290  1.00  0.00     0.039 C 
ATOM      2  C   UNL     1      -4.037  -0.722 -27.415  1.00  0.00    -0.074 C 
ATOM      3  C   UNL     1      -3.618  -1.451 -28.470  1.00  0.00    -0.027 C 
ATOM      4  C   UNL     1      -2.787  -0.817 -29.569  1.00  0.00     0.031 C 
ATOM      5  C   UNL     1      -2.550   0.670 -29.235  1.00  0.00    -0.000 C 
ATOM      6  C   UNL     1      -2.063   0.811 -27.754  1.00  0.00     0.013 C 
ATOM      7  C   UNL     1      -3.593   0.720 -27.399  1.00  0.00     0.021 C 
ATOM      8  C   UNL     1      -3.838   1.486 -28.777  1.00  0.00    -0.026 C 
ATOM      9  C   UNL     1      -5.147   1.215 -29.529  1.00  0.00     0.012 C 
ATOM     10  C   UNL     1      -3.654   3.014 -28.708  1.00  0.00     0.012 C 
ENDROOT
TORSDOF 0
ENDMDL
MODEL 3
REMARK VINA RESULT:      -5.5      5.336      6.869
REMARK SMILES CC1=CC[C@@H]2C[C@H]1C2(C)C
REMARK SMILES IDX 1 1 2 2 3 3 4 4 5 5 6 6 7 7 8 8 9 9 10 10
REMARK H PARENT
ROOT
ATOM      1  C   UNL     1      -5.427   2.701 -29.211  1.00  0.00     0.039 C 
ATOM      2  C   UNL     1      -4.229   1.871 -28.897  1.00  0.00    -0.074 C 
ATOM      3  C   UNL     1      -3.130   2.305 -28.245  1.00  0.00    -0.027 C 
ATOM      4  C   UNL     1      -1.974   1.364 -27.963  1.00  0.00     0.031 C 
ATOM      5  C   UNL     1      -2.302  -0.030 -28.537  1.00  0.00    -0.000 C 
ATOM      6  C   UNL     1      -2.811   0.107 -30.010  1.00  0.00     0.013 C 
ATOM      7  C   UNL     1      -4.199   0.430 -29.342  1.00  0.00     0.021 C 
ATOM      8  C   UNL     1      -3.753  -0.589 -28.199  1.00  0.00    -0.026 C 
ATOM      9  C   UNL     1      -4.284  -0.357 -26.778  1.00  0.00     0.012 C 
ATOM     10  C   UNL     1      -3.976  -2.076 -28.536  1.00  0.00     0.012 C 
ENDROOT
TORSDOF 0
ENDMDL
MODEL 4
REMARK VINA RESULT:      -5.3      4.586      6.638
REMARK SMILES CC1=CC[C@@H]2C[C@H]1C2(C)C
REMARK SMILES IDX 1 1 2 2 3 3 4 4 5 5 6 6 7 7 8 8 9 9 10 10
REMARK H PARENT
ROOT
ATOM      1  C   UNL     1      -6.114  -0.279 -31.115  1.00  0.00     0.039 C 
ATOM      2  C   UNL     1      -4.767  -0.300 -30.476  1.00  0.00    -0.074 C 
ATOM      3  C   UNL     1      -3.601  -0.051 -31.107  1.00  0.00    -0.027 C 
ATOM      4  C   UNL     1      -2.287  -0.083 -30.350  1.00  0.00     0.031 C 
ATOM      5  C   UNL     1      -2.559  -0.437 -28.874  1.00  0.00    -0.000 C 
ATOM      6  C   UNL     1      -3.500  -1.685 -28.790  1.00  0.00     0.013 C 
ATOM      7  C   UNL     1      -4.657  -0.641 -29.010  1.00  0.00     0.021 C 
ATOM      8  C   UNL     1      -3.744   0.370 -28.180  1.00  0.00    -0.026 C 
ATOM      9  C   UNL     1      -3.854   1.867 -28.495  1.00  0.00     0.012 C 
ATOM     10  C   UNL     1      -3.833   0.213 -26.650  1.00  0.00     0.012 C 
ENDROOT
TORSDOF 0
ENDMDL
MODEL 5
REMARK VINA RESULT:      -5.3      5.604      6.953
REMARK SMILES CC1=CC[C@@H]2C[C@H]1C2(C)C
REMARK SMILES IDX 1 1 2 2 3 3 4 4 5 5 6 6 7 7 8 8 9 9 10 10
REMARK H PARENT
ROOT
ATOM      1  C   UNL     1      -2.962  -0.589 -31.241  1.00  0.00     0.039 C 
ATOM      2  C   UNL     1      -2.991  -0.132 -29.823  1.00  0.00    -0.074 C 
ATOM      3  C   UNL     1      -1.956   0.430 -29.164  1.00  0.00    -0.027 C 
ATOM      4  C   UNL     1      -2.105   0.876 -27.722  1.00  0.00     0.031 C 
ATOM      5  C   UNL     1      -3.536   0.563 -27.238  1.00  0.00    -0.000 C 
ATOM      6  C   UNL     1      -3.913  -0.910 -27.608  1.00  0.00     0.013 C 
ATOM      7  C   UNL     1      -4.256  -0.310 -29.021  1.00  0.00     0.021 C 
ATOM      8  C   UNL     1      -4.706   0.998 -28.226  1.00  0.00    -0.026 C 
ATOM      9  C   UNL     1      -4.566   2.354 -28.930  1.00  0.00     0.012 C 
ATOM     10  C   UNL     1      -6.125   0.934 -27.628  1.00  0.00     0.012 C 
ENDROOT
TORSDOF 0
ENDMDL
MODEL 6
REMARK VINA RESULT:      -5.1      1.088      3.335
REMARK SMILES CC1=CC[C@@H]2C[C@H]1C2(C)C
REMARK SMILES IDX 1 1 2 2 3 3 4 4 5 5 6 6 7 7 8 8 9 9 10 10
REMARK H PARENT
ROOT
ATOM      1  C   UNL     1      -8.985  -2.691 -31.078  1.00  0.00     0.039 C 
ATOM      2  C   UNL     1      -9.375  -1.325 -31.528  1.00  0.00    -0.074 C 
ATOM      3  C   UNL     1     -10.269  -0.527 -30.909  1.00  0.00    -0.027 C 
ATOM      4  C   UNL     1     -10.576   0.858 -31.448  1.00  0.00     0.031 C 
ATOM      5  C   UNL     1      -9.740   1.105 -32.720  1.00  0.00    -0.000 C 
ATOM      6  C   UNL     1      -9.867  -0.118 -33.687  1.00  0.00     0.013 C 
ATOM      7  C   UNL     1      -8.753  -0.761 -32.781  1.00  0.00     0.021 C 
ATOM      8  C   UNL     1      -8.197   0.725 -32.613  1.00  0.00    -0.026 C 
ATOM      9  C   UNL     1      -7.473   1.081 -31.309  1.00  0.00     0.012 C 
ATOM     10  C   UNL     1      -7.319   1.222 -33.778  1.00  0.00     0.012 C 
ENDROOT
TORSDOF 0
ENDMDL
MODEL 7
REMARK VINA RESULT:      -5.1      4.843      6.726
REMARK SMILES CC1=CC[C@@H]2C[C@H]1C2(C)C
REMARK SMILES IDX 1 1 2 2 3 3 4 4 5 5 6 6 7 7 8 8 9 9 10 10
REMARK H PARENT
ROOT
ATOM      1  C   UNL     1      -1.964   0.896 -28.138  1.00  0.00     0.039 C 
ATOM      2  C   UNL     1      -3.188   0.139 -27.748  1.00  0.00    -0.074 C 
ATOM      3  C   UNL     1      -3.815   0.232 -26.557  1.00  0.00    -0.027 C 
ATOM      4  C   UNL     1      -5.068  -0.575 -26.276  1.00  0.00     0.031 C 
ATOM      5  C   UNL     1      -5.410  -1.431 -27.513  1.00  0.00    -0.000 C 
ATOM      6  C   UNL     1      -4.131  -2.185 -28.008  1.00  0.00     0.013 C 
ATOM      7  C   UNL     1      -3.794  -0.830 -28.733  1.00  0.00     0.021 C 
ATOM      8  C   UNL     1      -5.371  -0.667 -28.909  1.00  0.00    -0.026 C 
ATOM      9  C   UNL     1      -5.950   0.753 -28.952  1.00  0.00     0.012 C 
ATOM     10  C   UNL     1      -5.972  -1.445 -30.097  1.00  0.00     0.012 C 
ENDROOT
TORSDOF 0
ENDMDL
MODEL 8
REMARK VINA RESULT:      -5.1      4.649      6.522
REMARK SMILES CC1=CC[C@@H]2C[C@H]1C2(C)C
REMARK SMILES IDX 1 1 2 2 3 3 4 4 5 5 6 6 7 7 8 8 9 9 10 10
REMARK H PARENT
ROOT
ATOM      1  C   UNL     1      -4.915   1.679 -30.968  1.00  0.00     0.039 C 
ATOM      2  C   UNL     1      -4.473   0.473 -30.210  1.00  0.00    -0.074 C 
ATOM      3  C   UNL     1      -3.736  -0.538 -30.715  1.00  0.00    -0.027 C 
ATOM      4  C   UNL     1      -3.328  -1.710 -29.843  1.00  0.00     0.031 C 
ATOM      5  C   UNL     1      -3.893  -1.508 -28.422  1.00  0.00    -0.000 C 
ATOM      6  C   UNL     1      -5.409  -1.128 -28.501  1.00  0.00     0.013 C 
ATOM      7  C   UNL     1      -4.877   0.329 -28.763  1.00  0.00     0.021 C 
ATOM      8  C   UNL     1      -3.673  -0.062 -27.793  1.00  0.00    -0.026 C 
ATOM      9  C   UNL     1      -2.312   0.608 -28.027  1.00  0.00     0.012 C 
ATOM     10  C   UNL     1      -3.991   0.053 -26.290  1.00  0.00     0.012 C 
ENDROOT
TORSDOF 0
ENDMDL
MODEL 9
REMARK VINA RESULT:      -5.0      4.714      5.978
REMARK SMILES CC1=CC[C@@H]2C[C@H]1C2(C)C
REMARK SMILES IDX 1 1 2 2 3 3 4 4 5 5 6 6 7 7 8 8 9 9 10 10
REMARK H PARENT
ROOT
ATOM      1  C   UNL     1      -2.259   1.113 -27.701  1.00  0.00     0.039 C 
ATOM      2  C   UNL     1      -3.135   0.190 -28.476  1.00  0.00    -0.074 C 
ATOM      3  C   UNL     1      -2.706  -0.842 -29.232  1.00  0.00    -0.027 C 
ATOM      4  C   UNL     1      -3.692  -1.730 -29.965  1.00  0.00     0.031 C 
ATOM      5  C   UNL     1      -5.127  -1.233 -29.689  1.00  0.00    -0.000 C 
ATOM      6  C   UNL     1      -5.205   0.314 -29.911  1.00  0.00     0.013 C 
ATOM      7  C   UNL     1      -4.629   0.403 -28.450  1.00  0.00     0.021 C 
ATOM      8  C   UNL     1      -5.466  -0.924 -28.164  1.00  0.00    -0.026 C 
ATOM      9  C   UNL     1      -4.929  -1.902 -27.111  1.00  0.00     0.012 C 
ATOM     10  C   UNL     1      -6.959  -0.694 -27.860  1.00  0.00     0.012 C 
ENDROOT
TORSDOF 0
ENDMDL
MODEL 10
REMARK VINA RESULT:      -5.0      4.840      6.852
REMARK SMILES CC1=CC[C@@H]2C[C@H]1C2(C)C
REMARK SMILES IDX 1 1 2 2 3 3 4 4 5 5 6 6 7 7 8 8 9 9 10 10
REMARK H PARENT
ROOT
ATOM      1  C   UNL     1      -5.065  -0.531 -25.843  1.00  0.00     0.039 C 
ATOM      2  C   UNL     1      -4.928  -0.706 -27.317  1.00  0.00    -0.074 C 
ATOM      3  C   UNL     1      -5.952  -0.778 -28.191  1.00  0.00    -0.027 C 
ATOM      4  C   UNL     1      -5.694  -0.940 -29.677  1.00  0.00     0.031 C 
ATOM      5  C   UNL     1      -4.172  -1.007 -29.924  1.00  0.00    -0.000 C 
ATOM      6  C   UNL     1      -3.518  -2.029 -28.936  1.00  0.00     0.013 C 
ATOM      7  C   UNL     1      -3.548  -0.833 -27.914  1.00  0.00     0.021 C 
ATOM      8  C   UNL     1      -3.306   0.103 -29.182  1.00  0.00    -0.026 C 
ATOM      9  C   UNL     1      -3.871   1.529 -29.145  1.00  0.00     0.012 C 
ATOM     10  C   UNL     1      -1.838   0.202 -29.641  1.00  0.00     0.012 C 
ENDROOT
TORSDOF 0
ENDMDL
