MODEL 1
REMARK VINA RESULT:      -7.6      0.000      0.000
REMARK SMILES Oc1ccc(CCc2cc(O)cc(O)c2)cc1
REMARK SMILES IDX 6 1 5 2 4 3 3 4 2 5 16 6 17 7 1 8 7 10 8 11 15 12 9 13 13 14
REMARK SMILES IDX 10 15 12 16 14 17 11 19
REMARK H PARENT 1 9 14 18 11 20
ROOT
ATOM      1  C   UNL     1      -6.491   2.384 -30.971  1.00  0.00     0.040 C 
ENDROOT
BRANCH   1   2
ATOM      2  C   UNL     1      -7.624   1.734 -31.725  1.00  0.00    -0.047 A 
ATOM      3  C   UNL     1      -8.901   1.648 -31.153  1.00  0.00     0.007 A 
ATOM      4  C   UNL     1      -9.956   1.062 -31.857  1.00  0.00     0.046 A 
ATOM      5  C   UNL     1      -9.733   0.566 -33.137  1.00  0.00     0.115 A 
ATOM      6  C   UNL     1      -7.421   1.232 -33.019  1.00  0.00     0.007 A 
ATOM      7  C   UNL     1      -8.475   0.648 -33.722  1.00  0.00     0.046 A 
BRANCH   5   8
ATOM      8  O   UNL     1     -10.734  -0.013 -33.860  1.00  0.00    -0.508 OA
ATOM      9  H   UNL     1     -10.452  -0.907 -34.113  1.00  0.00     0.293 HD
ENDBRANCH   5   8
ENDBRANCH   1   2
BRANCH   1  10
ATOM     10  C   UNL     1      -6.157   1.624 -29.685  1.00  0.00     0.040 C 
BRANCH  10  11
ATOM     11  C   UNL     1      -4.757   1.062 -29.717  1.00  0.00    -0.040 A 
ATOM     12  C   UNL     1      -3.868   1.299 -28.659  1.00  0.00     0.050 A 
ATOM     13  C   UNL     1      -4.319   0.317 -30.822  1.00  0.00     0.050 A 
ATOM     14  C   UNL     1      -2.571   0.789 -28.716  1.00  0.00     0.119 A 
ATOM     15  C   UNL     1      -3.021  -0.184 -30.857  1.00  0.00     0.119 A 
ATOM     16  C   UNL     1      -2.139   0.046 -29.808  1.00  0.00     0.092 A 
BRANCH  14  17
ATOM     17  O   UNL     1      -1.681   1.002 -27.703  1.00  0.00    -0.508 OA
ATOM     18  H   UNL     1      -0.970   0.345 -27.772  1.00  0.00     0.293 HD
ENDBRANCH  14  17
BRANCH  15  19
ATOM     19  O   UNL     1      -2.649  -0.904 -31.955  1.00  0.00    -0.508 OA
ATOM     20  H   UNL     1      -2.557  -1.834 -31.692  1.00  0.00     0.293 HD
ENDBRANCH  15  19
ENDBRANCH  10  11
ENDBRANCH   1  10
TORSDOF 6
ENDMDL
MODEL 2
REMARK VINA RESULT:      -7.6      0.083      1.175
REMARK SMILES Oc1ccc(CCc2cc(O)cc(O)c2)cc1
REMARK SMILES IDX 6 1 5 2 4 3 3 4 2 5 16 6 17 7 1 8 7 10 8 11 15 12 9 13 13 14
REMARK SMILES IDX 10 15 12 16 14 17 11 19
REMARK H PARENT 1 9 14 18 11 20
ROOT
ATOM      1  C   UNL     1      -6.410   2.411 -31.086  1.00  0.00     0.040 C 
ENDROOT
BRANCH   1   2
ATOM      2  C   UNL     1      -7.575   1.769 -31.797  1.00  0.00    -0.047 A 
ATOM      3  C   UNL     1      -7.413   1.225 -33.080  1.00  0.00     0.007 A 
ATOM      4  C   UNL     1      -8.486   0.614 -33.732  1.00  0.00     0.046 A 
ATOM      5  C   UNL     1      -9.722   0.542 -33.098  1.00  0.00     0.115 A 
ATOM      6  C   UNL     1      -8.828   1.682 -31.173  1.00  0.00     0.007 A 
ATOM      7  C   UNL     1      -9.899   1.070 -31.825  1.00  0.00     0.046 A 
BRANCH   5   8
ATOM      8  O   UNL     1     -10.795  -0.046 -33.697  1.00  0.00    -0.508 OA
ATOM      9  H   UNL     1     -10.970  -0.893 -33.255  1.00  0.00     0.293 HD
ENDBRANCH   5   8
ENDBRANCH   1   2
BRANCH   1  10
ATOM     10  C   UNL     1      -6.095   1.706 -29.764  1.00  0.00     0.040 C 
BRANCH  10  11
ATOM     11  C   UNL     1      -4.709   1.110 -29.767  1.00  0.00    -0.040 A 
ATOM     12  C   UNL     1      -3.833   1.336 -28.695  1.00  0.00     0.050 A 
ATOM     13  C   UNL     1      -4.269   0.347 -30.857  1.00  0.00     0.050 A 
ATOM     14  C   UNL     1      -2.548   0.794 -28.724  1.00  0.00     0.119 A 
ATOM     15  C   UNL     1      -2.983  -0.185 -30.864  1.00  0.00     0.119 A 
ATOM     16  C   UNL     1      -2.114   0.032 -29.802  1.00  0.00     0.092 A 
BRANCH  14  17
ATOM     17  O   UNL     1      -1.672   0.994 -27.697  1.00  0.00    -0.508 OA
ATOM     18  H   UNL     1      -1.116   1.762 -27.908  1.00  0.00     0.293 HD
ENDBRANCH  14  17
BRANCH  15  19
ATOM     19  O   UNL     1      -2.608  -0.922 -31.950  1.00  0.00    -0.508 OA
ATOM     20  H   UNL     1      -2.725  -1.862 -31.735  1.00  0.00     0.293 HD
ENDBRANCH  15  19
ENDBRANCH  10  11
ENDBRANCH   1  10
TORSDOF 6
ENDMDL
MODEL 3
REMARK VINA RESULT:      -7.4      0.186      2.330
REMARK SMILES Oc1ccc(CCc2cc(O)cc(O)c2)cc1
REMARK SMILES IDX 6 1 5 2 4 3 3 4 2 5 16 6 17 7 1 8 7 10 8 11 15 12 9 13 13 14
REMARK SMILES IDX 10 15 12 16 14 17 11 19
REMARK H PARENT 1 9 14 18 11 20
ROOT
ATOM      1  C   UNL     1      -6.574   2.438 -31.193  1.00  0.00     0.040 C 
ENDROOT
BRANCH   1   2
ATOM      2  C   UNL     1      -7.724   1.769 -31.904  1.00  0.00    -0.047 A 
ATOM      3  C   UNL     1      -7.538   1.183 -33.164  1.00  0.00     0.007 A 
ATOM      4  C   UNL     1      -8.598   0.548 -33.815  1.00  0.00     0.046 A 
ATOM      5  C   UNL     1      -9.845   0.495 -33.201  1.00  0.00     0.115 A 
ATOM      6  C   UNL     1      -8.989   1.701 -31.300  1.00  0.00     0.007 A 
ATOM      7  C   UNL     1     -10.047   1.066 -31.950  1.00  0.00     0.046 A 
BRANCH   5   8
ATOM      8  O   UNL     1     -10.907  -0.115 -33.800  1.00  0.00    -0.508 OA
ATOM      9  H   UNL     1     -10.615  -0.471 -34.655  1.00  0.00     0.293 HD
ENDBRANCH   5   8
ENDBRANCH   1   2
BRANCH   1  10
ATOM     10  C   UNL     1      -6.252   1.749 -29.865  1.00  0.00     0.040 C 
BRANCH  10  11
ATOM     11  C   UNL     1      -4.855   1.177 -29.858  1.00  0.00    -0.040 A 
ATOM     12  C   UNL     1      -4.400   0.393 -30.928  1.00  0.00     0.050 A 
ATOM     13  C   UNL     1      -4.004   1.401 -28.766  1.00  0.00     0.050 A 
ATOM     14  C   UNL     1      -3.113  -0.145 -30.895  1.00  0.00     0.119 A 
ATOM     15  C   UNL     1      -2.723   0.857 -28.755  1.00  0.00     0.119 A 
ATOM     16  C   UNL     1      -2.268   0.082 -29.815  1.00  0.00     0.092 A 
BRANCH  14  17
ATOM     17  O   UNL     1      -2.640  -0.912 -31.919  1.00  0.00    -0.508 OA
ATOM     18  H   UNL     1      -2.992  -0.565 -32.754  1.00  0.00     0.293 HD
ENDBRANCH  14  17
BRANCH  15  19
ATOM     19  O   UNL     1      -1.937   1.108 -27.669  1.00  0.00    -0.508 OA
ATOM     20  H   UNL     1      -2.434   0.864 -26.871  1.00  0.00     0.293 HD
ENDBRANCH  15  19
ENDBRANCH  10  11
ENDBRANCH   1  10
TORSDOF 6
ENDMDL
MODEL 4
REMARK VINA RESULT:      -7.3      1.593      6.817
REMARK SMILES Oc1ccc(CCc2cc(O)cc(O)c2)cc1
REMARK SMILES IDX 6 1 5 2 4 3 3 4 2 5 16 6 17 7 1 8 7 10 8 11 15 12 9 13 13 14
REMARK SMILES IDX 10 15 12 16 14 17 11 19
REMARK H PARENT 1 9 14 18 11 20
ROOT
ATOM      1  C   UNL     1      -5.161   1.253 -31.827  1.00  0.00     0.040 C 
ENDROOT
BRANCH   1   2
ATOM      2  C   UNL     1      -4.201   1.161 -30.667  1.00  0.00    -0.047 A 
ATOM      3  C   UNL     1      -3.267   0.117 -30.599  1.00  0.00     0.007 A 
ATOM      4  C   UNL     1      -2.365   0.041 -29.535  1.00  0.00     0.046 A 
ATOM      5  C   UNL     1      -2.394   1.013 -28.541  1.00  0.00     0.115 A 
ATOM      6  C   UNL     1      -4.211   2.134 -29.658  1.00  0.00     0.007 A 
ATOM      7  C   UNL     1      -3.309   2.058 -28.596  1.00  0.00     0.046 A 
BRANCH   5   8
ATOM      8  O   UNL     1      -1.533   0.978 -27.485  1.00  0.00    -0.508 OA
ATOM      9  H   UNL     1      -0.882   1.690 -27.595  1.00  0.00     0.293 HD
ENDBRANCH   5   8
ENDBRANCH   1   2
BRANCH   1  10
ATOM     10  C   UNL     1      -6.456   1.969 -31.434  1.00  0.00     0.040 C 
BRANCH  10  11
ATOM     11  C   UNL     1      -7.674   1.159 -31.802  1.00  0.00    -0.040 A 
ATOM     12  C   UNL     1      -8.843   1.792 -32.252  1.00  0.00     0.050 A 
ATOM     13  C   UNL     1      -7.662  -0.236 -31.672  1.00  0.00     0.050 A 
ATOM     14  C   UNL     1      -9.967   1.029 -32.568  1.00  0.00     0.119 A 
ATOM     15  C   UNL     1      -8.795  -0.978 -31.995  1.00  0.00     0.119 A 
ATOM     16  C   UNL     1      -9.952  -0.355 -32.444  1.00  0.00     0.092 A 
BRANCH  14  17
ATOM     17  O   UNL     1     -11.118   1.614 -33.008  1.00  0.00    -0.508 OA
ATOM     18  H   UNL     1     -10.889   2.314 -33.639  1.00  0.00     0.293 HD
ENDBRANCH  14  17
BRANCH  15  19
ATOM     19  O   UNL     1      -8.727  -2.334 -31.851  1.00  0.00    -0.508 OA
ATOM     20  H   UNL     1      -9.397  -2.605 -31.203  1.00  0.00     0.293 HD
ENDBRANCH  15  19
ENDBRANCH  10  11
ENDBRANCH   1  10
TORSDOF 6
ENDMDL
MODEL 5
REMARK VINA RESULT:      -7.3      1.598      6.815
REMARK SMILES Oc1ccc(CCc2cc(O)cc(O)c2)cc1
REMARK SMILES IDX 6 1 5 2 4 3 3 4 2 5 16 6 17 7 1 8 7 10 8 11 15 12 9 13 13 14
REMARK SMILES IDX 10 15 12 16 14 17 11 19
REMARK H PARENT 1 9 14 18 11 20
ROOT
ATOM      1  C   UNL     1      -5.172   1.283 -31.818  1.00  0.00     0.040 C 
ENDROOT
BRANCH   1   2
ATOM      2  C   UNL     1      -4.209   1.186 -30.661  1.00  0.00    -0.047 A 
ATOM      3  C   UNL     1      -3.283   0.135 -30.592  1.00  0.00     0.007 A 
ATOM      4  C   UNL     1      -2.379   0.054 -29.530  1.00  0.00     0.046 A 
ATOM      5  C   UNL     1      -2.397   1.030 -28.539  1.00  0.00     0.115 A 
ATOM      6  C   UNL     1      -4.208   2.162 -29.654  1.00  0.00     0.007 A 
ATOM      7  C   UNL     1      -3.304   2.082 -28.594  1.00  0.00     0.046 A 
BRANCH   5   8
ATOM      8  O   UNL     1      -1.533   0.990 -27.486  1.00  0.00    -0.508 OA
ATOM      9  H   UNL     1      -1.435   1.891 -27.134  1.00  0.00     0.293 HD
ENDBRANCH   5   8
ENDBRANCH   1   2
BRANCH   1  10
ATOM     10  C   UNL     1      -6.470   1.988 -31.417  1.00  0.00     0.040 C 
BRANCH  10  11
ATOM     11  C   UNL     1      -7.682   1.154 -31.751  1.00  0.00    -0.040 A 
ATOM     12  C   UNL     1      -7.642  -0.243 -31.635  1.00  0.00     0.050 A 
ATOM     13  C   UNL     1      -8.857   1.766 -32.211  1.00  0.00     0.050 A 
ATOM     14  C   UNL     1      -8.766  -0.999 -31.969  1.00  0.00     0.119 A 
ATOM     15  C   UNL     1      -9.967   0.992 -32.537  1.00  0.00     0.119 A 
ATOM     16  C   UNL     1      -9.932  -0.392 -32.419  1.00  0.00     0.092 A 
BRANCH  14  17
ATOM     17  O   UNL     1      -8.759  -2.360 -31.867  1.00  0.00    -0.508 OA
ATOM     18  H   UNL     1      -9.391  -2.722 -32.508  1.00  0.00     0.293 HD
ENDBRANCH  14  17
BRANCH  15  19
ATOM     19  O   UNL     1     -11.085   1.640 -32.977  1.00  0.00    -0.508 OA
ATOM     20  H   UNL     1     -11.737   0.973 -33.247  1.00  0.00     0.293 HD
ENDBRANCH  15  19
ENDBRANCH  10  11
ENDBRANCH   1  10
TORSDOF 6
ENDMDL
MODEL 6
REMARK VINA RESULT:      -7.2      3.917      4.167
REMARK SMILES Oc1ccc(CCc2cc(O)cc(O)c2)cc1
REMARK SMILES IDX 6 1 5 2 4 3 3 4 2 5 16 6 17 7 1 8 7 10 8 11 15 12 9 13 13 14
REMARK SMILES IDX 10 15 12 16 14 17 11 19
REMARK H PARENT 1 9 14 18 11 20
ROOT
ATOM      1  C   UNL     1      -6.729  -1.555 -28.093  1.00  0.00     0.040 C 
ENDROOT
BRANCH   1   2
ATOM      2  C   UNL     1      -7.672  -2.584 -28.665  1.00  0.00    -0.047 A 
ATOM      3  C   UNL     1      -8.864  -2.904 -28.000  1.00  0.00     0.007 A 
ATOM      4  C   UNL     1      -9.747  -3.844 -28.538  1.00  0.00     0.046 A 
ATOM      5  C   UNL     1      -9.438  -4.460 -29.746  1.00  0.00     0.115 A 
ATOM      6  C   UNL     1      -7.381  -3.214 -29.884  1.00  0.00     0.007 A 
ATOM      7  C   UNL     1      -8.264  -4.151 -30.421  1.00  0.00     0.046 A 
BRANCH   5   8
ATOM      8  O   UNL     1     -10.270  -5.382 -30.307  1.00  0.00    -0.508 OA
ATOM      9  H   UNL     1     -10.833  -4.933 -30.959  1.00  0.00     0.293 HD
ENDBRANCH   5   8
ENDBRANCH   1   2
BRANCH   1  10
ATOM     10  C   UNL     1      -5.345  -2.148 -27.815  1.00  0.00     0.040 C 
BRANCH  10  11
ATOM     11  C   UNL     1      -4.255  -1.365 -28.505  1.00  0.00    -0.040 A 
ATOM     12  C   UNL     1      -3.391  -0.543 -27.767  1.00  0.00     0.050 A 
ATOM     13  C   UNL     1      -4.113  -1.427 -29.898  1.00  0.00     0.050 A 
ATOM     14  C   UNL     1      -2.402   0.190 -28.424  1.00  0.00     0.119 A 
ATOM     15  C   UNL     1      -3.118  -0.689 -30.533  1.00  0.00     0.119 A 
ATOM     16  C   UNL     1      -2.257   0.123 -29.805  1.00  0.00     0.092 A 
BRANCH  14  17
ATOM     17  O   UNL     1      -1.545   0.998 -27.736  1.00  0.00    -0.508 OA
ATOM     18  H   UNL     1      -0.851   1.301 -28.342  1.00  0.00     0.293 HD
ENDBRANCH  14  17
BRANCH  15  19
ATOM     19  O   UNL     1      -3.023  -0.790 -31.891  1.00  0.00    -0.508 OA
ATOM     20  H   UNL     1      -2.184  -1.231 -32.105  1.00  0.00     0.293 HD
ENDBRANCH  15  19
ENDBRANCH  10  11
ENDBRANCH   1  10
TORSDOF 6
ENDMDL
MODEL 7
REMARK VINA RESULT:      -7.2      3.849      4.712
REMARK SMILES Oc1ccc(CCc2cc(O)cc(O)c2)cc1
REMARK SMILES IDX 6 1 5 2 4 3 3 4 2 5 16 6 17 7 1 8 7 10 8 11 15 12 9 13 13 14
REMARK SMILES IDX 10 15 12 16 14 17 11 19
REMARK H PARENT 1 9 14 18 11 20
ROOT
ATOM      1  C   UNL     1      -6.722  -1.509 -27.987  1.00  0.00     0.040 C 
ENDROOT
BRANCH   1   2
ATOM      2  C   UNL     1      -7.691  -2.479 -28.618  1.00  0.00    -0.047 A 
ATOM      3  C   UNL     1      -7.392  -3.084 -29.847  1.00  0.00     0.007 A 
ATOM      4  C   UNL     1      -8.279  -3.996 -30.424  1.00  0.00     0.046 A 
ATOM      5  C   UNL     1      -9.465  -4.307 -29.766  1.00  0.00     0.115 A 
ATOM      6  C   UNL     1      -8.889  -2.810 -27.969  1.00  0.00     0.007 A 
ATOM      7  C   UNL     1      -9.774  -3.721 -28.544  1.00  0.00     0.046 A 
BRANCH   5   8
ATOM      8  O   UNL     1     -10.359  -5.191 -30.292  1.00  0.00    -0.508 OA
ATOM      9  H   UNL     1      -9.890  -5.766 -30.918  1.00  0.00     0.293 HD
ENDBRANCH   5   8
ENDBRANCH   1   2
BRANCH   1  10
ATOM     10  C   UNL     1      -5.335  -2.131 -27.808  1.00  0.00     0.040 C 
BRANCH  10  11
ATOM     11  C   UNL     1      -4.269  -1.325 -28.509  1.00  0.00    -0.040 A 
ATOM     12  C   UNL     1      -4.144  -1.369 -29.906  1.00  0.00     0.050 A 
ATOM     13  C   UNL     1      -3.371  -0.544 -27.769  1.00  0.00     0.050 A 
ATOM     14  C   UNL     1      -3.139  -0.634 -30.535  1.00  0.00     0.119 A 
ATOM     15  C   UNL     1      -2.377   0.184 -28.418  1.00  0.00     0.119 A 
ATOM     16  C   UNL     1      -2.253   0.146 -29.801  1.00  0.00     0.092 A 
BRANCH  14  17
ATOM     17  O   UNL     1      -2.990  -0.655 -31.891  1.00  0.00    -0.508 OA
ATOM     18  H   UNL     1      -2.159  -1.108 -32.105  1.00  0.00     0.293 HD
ENDBRANCH  14  17
BRANCH  15  19
ATOM     19  O   UNL     1      -1.532   0.929 -27.648  1.00  0.00    -0.508 OA
ATOM     20  H   UNL     1      -1.006   1.497 -28.236  1.00  0.00     0.293 HD
ENDBRANCH  15  19
ENDBRANCH  10  11
ENDBRANCH   1  10
TORSDOF 6
ENDMDL
MODEL 8
REMARK VINA RESULT:      -7.2      1.306      2.727
REMARK SMILES Oc1ccc(CCc2cc(O)cc(O)c2)cc1
REMARK SMILES IDX 6 1 5 2 4 3 3 4 2 5 16 6 17 7 1 8 7 10 8 11 15 12 9 13 13 14
REMARK SMILES IDX 10 15 12 16 14 17 11 19
REMARK H PARENT 1 9 14 18 11 20
ROOT
ATOM      1  C   UNL     1      -7.191  -0.725 -29.328  1.00  0.00     0.040 C 
ENDROOT
BRANCH   1   2
ATOM      2  C   UNL     1      -8.173  -0.053 -30.254  1.00  0.00    -0.047 A 
ATOM      3  C   UNL     1      -7.780   1.046 -31.033  1.00  0.00     0.007 A 
ATOM      4  C   UNL     1      -8.684   1.657 -31.905  1.00  0.00     0.046 A 
ATOM      5  C   UNL     1      -9.981   1.166 -32.002  1.00  0.00     0.115 A 
ATOM      6  C   UNL     1      -9.485  -0.535 -30.370  1.00  0.00     0.007 A 
ATOM      7  C   UNL     1     -10.387   0.075 -31.242  1.00  0.00     0.046 A 
BRANCH   5   8
ATOM      8  O   UNL     1     -10.895   1.732 -32.839  1.00  0.00    -0.508 OA
ATOM      9  H   UNL     1     -11.355   2.441 -32.359  1.00  0.00     0.293 HD
ENDBRANCH   5   8
ENDBRANCH   1   2
BRANCH   1  10
ATOM     10  C   UNL     1      -6.317   0.296 -28.593  1.00  0.00     0.040 C 
BRANCH  10  11
ATOM     11  C   UNL     1      -4.877   0.218 -29.037  1.00  0.00    -0.040 A 
ATOM     12  C   UNL     1      -4.546  -0.305 -30.296  1.00  0.00     0.050 A 
ATOM     13  C   UNL     1      -3.849   0.642 -28.183  1.00  0.00     0.050 A 
ATOM     14  C   UNL     1      -3.208  -0.389 -30.681  1.00  0.00     0.119 A 
ATOM     15  C   UNL     1      -2.521   0.551 -28.589  1.00  0.00     0.119 A 
ATOM     16  C   UNL     1      -2.189   0.037 -29.836  1.00  0.00     0.092 A 
BRANCH  14  17
ATOM     17  O   UNL     1      -2.852  -0.892 -31.898  1.00  0.00    -0.508 OA
ATOM     18  H   UNL     1      -3.558  -0.695 -32.534  1.00  0.00     0.293 HD
ENDBRANCH  14  17
BRANCH  15  19
ATOM     19  O   UNL     1      -1.562   0.980 -27.718  1.00  0.00    -0.508 OA
ATOM     20  H   UNL     1      -0.725   1.063 -28.204  1.00  0.00     0.293 HD
ENDBRANCH  15  19
ENDBRANCH  10  11
ENDBRANCH   1  10
TORSDOF 6
ENDMDL
MODEL 9
REMARK VINA RESULT:      -7.1      2.493      2.779
REMARK SMILES Oc1ccc(CCc2cc(O)cc(O)c2)cc1
REMARK SMILES IDX 6 1 5 2 4 3 3 4 2 5 16 6 17 7 1 8 7 10 8 11 15 12 9 13 13 14
REMARK SMILES IDX 10 15 12 16 14 17 11 19
REMARK H PARENT 1 9 14 18 11 20
ROOT
ATOM      1  C   UNL     1      -6.477  -2.515 -29.212  1.00  0.00     0.040 C 
ENDROOT
BRANCH   1   2
ATOM      2  C   UNL     1      -7.706  -1.766 -29.663  1.00  0.00    -0.047 A 
ATOM      3  C   UNL     1      -8.703  -1.416 -28.741  1.00  0.00     0.007 A 
ATOM      4  C   UNL     1      -9.833  -0.707 -29.153  1.00  0.00     0.046 A 
ATOM      5  C   UNL     1      -9.963  -0.342 -30.489  1.00  0.00     0.115 A 
ATOM      6  C   UNL     1      -7.854  -1.386 -31.005  1.00  0.00     0.007 A 
ATOM      7  C   UNL     1      -8.983  -0.676 -31.416  1.00  0.00     0.046 A 
BRANCH   5   8
ATOM      8  O   UNL     1     -11.050   0.350 -30.935  1.00  0.00    -0.508 OA
ATOM      9  H   UNL     1     -11.822   0.080 -30.413  1.00  0.00     0.293 HD
ENDBRANCH   5   8
ENDBRANCH   1   2
BRANCH   1  10
ATOM     10  C   UNL     1      -5.700  -1.739 -28.146  1.00  0.00     0.040 C 
BRANCH  10  11
ATOM     11  C   UNL     1      -4.453  -1.107 -28.714  1.00  0.00    -0.040 A 
ATOM     12  C   UNL     1      -3.574  -0.393 -27.887  1.00  0.00     0.050 A 
ATOM     13  C   UNL     1      -4.173  -1.203 -30.084  1.00  0.00     0.050 A 
ATOM     14  C   UNL     1      -2.437   0.203 -28.433  1.00  0.00     0.119 A 
ATOM     15  C   UNL     1      -3.031  -0.603 -30.608  1.00  0.00     0.119 A 
ATOM     16  C   UNL     1      -2.156   0.102 -29.791  1.00  0.00     0.092 A 
BRANCH  14  17
ATOM     17  O   UNL     1      -1.562   0.904 -27.656  1.00  0.00    -0.508 OA
ATOM     18  H   UNL     1      -0.661   0.602 -27.852  1.00  0.00     0.293 HD
ENDBRANCH  14  17
BRANCH  15  19
ATOM     19  O   UNL     1      -2.806  -0.729 -31.948  1.00  0.00    -0.508 OA
ATOM     20  H   UNL     1      -2.477  -1.628 -32.118  1.00  0.00     0.293 HD
ENDBRANCH  15  19
ENDBRANCH  10  11
ENDBRANCH   1  10
TORSDOF 6
ENDMDL
MODEL 10
REMARK VINA RESULT:      -7.0      5.028      7.051
REMARK SMILES Oc1ccc(CCc2cc(O)cc(O)c2)cc1
REMARK SMILES IDX 6 1 5 2 4 3 3 4 2 5 16 6 17 7 1 8 7 10 8 11 15 12 9 13 13 14
REMARK SMILES IDX 10 15 12 16 14 17 11 19
REMARK H PARENT 1 9 14 18 11 20
ROOT
ATOM      1  C   UNL     1      -7.937  -3.297 -30.012  1.00  0.00     0.040 C 
ENDROOT
BRANCH   1   2
ATOM      2  C   UNL     1      -9.056  -4.080 -29.370  1.00  0.00    -0.047 A 
ATOM      3  C   UNL     1      -9.414  -3.845 -28.035  1.00  0.00     0.007 A 
ATOM      4  C   UNL     1     -10.461  -4.556 -27.446  1.00  0.00     0.046 A 
ATOM      5  C   UNL     1     -11.155  -5.501 -28.195  1.00  0.00     0.115 A 
ATOM      6  C   UNL     1      -9.770  -5.034 -30.110  1.00  0.00     0.007 A 
ATOM      7  C   UNL     1     -10.817  -5.743 -29.521  1.00  0.00     0.046 A 
BRANCH   5   8
ATOM      8  O   UNL     1     -12.183  -6.218 -27.660  1.00  0.00    -0.508 OA
ATOM      9  H   UNL     1     -12.136  -7.126 -28.002  1.00  0.00     0.293 HD
ENDBRANCH   5   8
ENDBRANCH   1   2
BRANCH   1  10
ATOM     10  C   UNL     1      -8.062  -1.797 -29.729  1.00  0.00     0.040 C 
BRANCH  10  11
ATOM     11  C   UNL     1      -8.523  -1.037 -30.948  1.00  0.00    -0.040 A 
ATOM     12  C   UNL     1      -9.869  -1.067 -31.341  1.00  0.00     0.050 A 
ATOM     13  C   UNL     1      -7.604  -0.314 -31.721  1.00  0.00     0.050 A 
ATOM     14  C   UNL     1     -10.274  -0.376 -32.482  1.00  0.00     0.119 A 
ATOM     15  C   UNL     1      -8.030   0.371 -32.855  1.00  0.00     0.119 A 
ATOM     16  C   UNL     1      -9.363   0.347 -33.245  1.00  0.00     0.092 A 
BRANCH  14  17
ATOM     17  O   UNL     1     -11.576  -0.384 -32.891  1.00  0.00    -0.508 OA
ATOM     18  H   UNL     1     -12.086  -0.947 -32.288  1.00  0.00     0.293 HD
ENDBRANCH  14  17
BRANCH  15  19
ATOM     19  O   UNL     1      -7.093   1.060 -33.569  1.00  0.00    -0.508 OA
ATOM     20  H   UNL     1      -7.491   1.896 -33.865  1.00  0.00     0.293 HD
ENDBRANCH  15  19
ENDBRANCH  10  11
ENDBRANCH   1  10
TORSDOF 6
ENDMDL
