MODEL 1
REMARK VINA RESULT:      -5.6      0.000      0.000
REMARK SMILES C=CC[S@@](=O)C[C@H](N)C(=O)O
REMARK SMILES IDX 6 1 4 2 5 3 3 4 2 5 1 6 7 7 9 8 10 9 11 10 8 12
REMARK H PARENT 11 11 8 13 8 14
ROOT
ATOM      1  C   UNL     1      -3.703 -10.624 -27.043  1.00  0.00     0.136 C 
ENDROOT
BRANCH   1   2
ATOM      2  S   UNL     1      -2.740  -9.106 -27.377  1.00  0.00     0.027 S 
ATOM      3  O   UNL     1      -3.043  -8.697 -28.791  1.00  0.00    -0.259 OA
BRANCH   2   4
ATOM      4  C   UNL     1      -1.093  -9.898 -27.388  1.00  0.00     0.131 C 
BRANCH   4   5
ATOM      5  C   UNL     1      -0.490  -9.847 -26.017  1.00  0.00    -0.021 C 
ATOM      6  C   UNL     1       0.446 -10.689 -25.561  1.00  0.00     0.005 C 
ENDBRANCH   4   5
ENDBRANCH   2   4
ENDBRANCH   1   2
BRANCH   1   7
ATOM      7  C   UNL     1      -5.213 -10.381 -27.129  1.00  0.00     0.174 C 
BRANCH   7   8
ATOM      8  C   UNL     1      -6.001 -11.364 -26.247  1.00  0.00     0.321 C 
ATOM      9  O   UNL     1      -6.042 -11.351 -25.029  1.00  0.00    -0.251 OA
BRANCH   8  10
ATOM     10  O   UNL     1      -6.728 -12.240 -26.987  1.00  0.00    -0.480 OA
ATOM     11  H   UNL     1      -6.388 -12.370 -27.893  1.00  0.00     0.296 HD
ENDBRANCH   8  10
ENDBRANCH   7   8
BRANCH   7  12
ATOM     12  N   UNL     1      -5.543  -8.994 -26.717  1.00  0.00    -0.318 NA
ATOM     13  H   UNL     1      -4.993  -8.759 -25.884  1.00  0.00     0.119 HD
ATOM     14  H   UNL     1      -6.512  -8.923 -26.408  1.00  0.00     0.119 HD
ENDBRANCH   7  12
ENDBRANCH   1   7
TORSDOF 7
ENDMDL
MODEL 2
REMARK VINA RESULT:      -5.5      3.976      5.487
REMARK SMILES C=CC[S@@](=O)C[C@H](N)C(=O)O
REMARK SMILES IDX 6 1 4 2 5 3 3 4 2 5 1 6 7 7 9 8 10 9 11 10 8 12
REMARK H PARENT 11 11 8 13 8 14
ROOT
ATOM      1  C   UNL     1       0.333 -10.720 -27.031  1.00  0.00     0.136 C 
ENDROOT
BRANCH   1   2
ATOM      2  S   UNL     1      -0.745  -9.266 -27.279  1.00  0.00     0.027 S 
ATOM      3  O   UNL     1      -1.134  -8.769 -25.916  1.00  0.00    -0.259 OA
BRANCH   2   4
ATOM      4  C   UNL     1      -2.181 -10.177 -27.949  1.00  0.00     0.131 C 
BRANCH   4   5
ATOM      5  C   UNL     1      -3.391  -9.293 -27.958  1.00  0.00    -0.021 C 
ATOM      6  C   UNL     1      -4.521  -9.537 -27.281  1.00  0.00     0.005 C 
ENDBRANCH   4   5
ENDBRANCH   2   4
ENDBRANCH   1   2
BRANCH   1   7
ATOM      7  C   UNL     1       0.354 -11.181 -25.569  1.00  0.00     0.174 C 
BRANCH   7   8
ATOM      8  C   UNL     1       0.783 -12.652 -25.442  1.00  0.00     0.321 C 
ATOM      9  O   UNL     1       1.325 -13.313 -26.310  1.00  0.00    -0.251 OA
BRANCH   8  10
ATOM     10  O   UNL     1       0.553 -13.143 -24.196  1.00  0.00    -0.480 OA
ATOM     11  H   UNL     1      -0.390 -13.151 -23.943  1.00  0.00     0.296 HD
ENDBRANCH   8  10
ENDBRANCH   7   8
BRANCH   7  12
ATOM     12  N   UNL     1       1.277 -10.339 -24.770  1.00  0.00    -0.318 NA
ATOM     13  H   UNL     1       0.730  -9.817 -24.077  1.00  0.00     0.119 HD
ATOM     14  H   UNL     1       1.707  -9.615 -25.347  1.00  0.00     0.119 HD
ENDBRANCH   7  12
ENDBRANCH   1   7
TORSDOF 7
ENDMDL
MODEL 3
REMARK VINA RESULT:      -5.5      3.186      5.171
REMARK SMILES C=CC[S@@](=O)C[C@H](N)C(=O)O
REMARK SMILES IDX 6 1 4 2 5 3 3 4 2 5 1 6 7 7 9 8 10 9 11 10 8 12
REMARK H PARENT 11 11 8 13 8 14
ROOT
ATOM      1  C   UNL     1      -1.476  -9.349 -26.298  1.00  0.00     0.136 C 
ENDROOT
BRANCH   1   2
ATOM      2  S   UNL     1      -2.147  -9.674 -27.967  1.00  0.00     0.027 S 
ATOM      3  O   UNL     1      -2.663  -8.366 -28.495  1.00  0.00    -0.259 OA
BRANCH   2   4
ATOM      4  C   UNL     1      -3.598 -10.645 -27.427  1.00  0.00     0.131 C 
BRANCH   4   5
ATOM      5  C   UNL     1      -4.740  -9.727 -27.112  1.00  0.00    -0.021 C 
ATOM      6  C   UNL     1      -5.759 -10.026 -26.295  1.00  0.00     0.005 C 
ENDBRANCH   4   5
ENDBRANCH   2   4
ENDBRANCH   1   2
BRANCH   1   7
ATOM      7  C   UNL     1       0.044  -9.533 -26.239  1.00  0.00     0.174 C 
BRANCH   7   8
ATOM      8  C   UNL     1       0.429 -10.977 -25.878  1.00  0.00     0.321 C 
ATOM      9  O   UNL     1       0.201 -11.965 -26.555  1.00  0.00    -0.251 OA
BRANCH   8  10
ATOM     10  O   UNL     1       1.136 -11.041 -24.720  1.00  0.00    -0.480 OA
ATOM     11  H   UNL     1       1.432 -10.170 -24.390  1.00  0.00     0.296 HD
ENDBRANCH   8  10
ENDBRANCH   7   8
BRANCH   7  12
ATOM     12  N   UNL     1       0.662  -9.181 -27.541  1.00  0.00    -0.318 NA
ATOM     13  H   UNL     1       1.571  -9.650 -27.612  1.00  0.00     0.119 HD
ATOM     14  H   UNL     1       0.889  -8.187 -27.583  1.00  0.00     0.119 HD
ENDBRANCH   7  12
ENDBRANCH   1   7
TORSDOF 7
ENDMDL
MODEL 4
REMARK VINA RESULT:      -5.2     14.377     16.132
REMARK SMILES C=CC[S@@](=O)C[C@H](N)C(=O)O
REMARK SMILES IDX 6 1 4 2 5 3 3 4 2 5 1 6 7 7 9 8 10 9 11 10 8 12
REMARK H PARENT 11 11 8 13 8 14
ROOT
ATOM      1  C   UNL     1       6.463  -2.072 -18.684  1.00  0.00     0.136 C 
ENDROOT
BRANCH   1   2
ATOM      2  S   UNL     1       6.372  -3.083 -20.203  1.00  0.00     0.027 S 
ATOM      3  O   UNL     1       7.783  -3.424 -20.590  1.00  0.00    -0.259 OA
BRANCH   2   4
ATOM      4  C   UNL     1       5.819  -1.743 -21.317  1.00  0.00     0.131 C 
BRANCH   4   5
ATOM      5  C   UNL     1       4.982  -2.309 -22.423  1.00  0.00    -0.021 C 
ATOM      6  C   UNL     1       4.920  -1.812 -23.666  1.00  0.00     0.005 C 
ENDBRANCH   4   5
ENDBRANCH   2   4
ENDBRANCH   1   2
BRANCH   1   7
ATOM      7  C   UNL     1       7.529  -0.975 -18.782  1.00  0.00     0.174 C 
BRANCH   7   8
ATOM      8  C   UNL     1       7.453   0.002 -17.598  1.00  0.00     0.321 C 
ATOM      9  O   UNL     1       6.750  -0.129 -16.611  1.00  0.00    -0.251 OA
BRANCH   8  10
ATOM     10  O   UNL     1       8.329   1.032 -17.730  1.00  0.00    -0.480 OA
ATOM     11  H   UNL     1       7.981   1.781 -18.251  1.00  0.00     0.296 HD
ENDBRANCH   8  10
ENDBRANCH   7   8
BRANCH   7  12
ATOM     12  N   UNL     1       8.887  -1.570 -18.829  1.00  0.00    -0.318 NA
ATOM     13  H   UNL     1       9.112  -1.800 -19.803  1.00  0.00     0.119 HD
ATOM     14  H   UNL     1       8.912  -2.469 -18.347  1.00  0.00     0.119 HD
ENDBRANCH   7  12
ENDBRANCH   1   7
TORSDOF 7
ENDMDL
MODEL 5
REMARK VINA RESULT:      -5.0      2.426      2.948
REMARK SMILES C=CC[S@@](=O)C[C@H](N)C(=O)O
REMARK SMILES IDX 6 1 4 2 5 3 3 4 2 5 1 6 7 7 9 8 10 9 11 10 8 12
REMARK H PARENT 11 11 8 13 8 14
ROOT
ATOM      1  C   UNL     1      -1.898 -10.039 -26.737  1.00  0.00     0.136 C 
ENDROOT
BRANCH   1   2
ATOM      2  S   UNL     1      -0.421 -10.945 -27.318  1.00  0.00     0.027 S 
ATOM      3  O   UNL     1      -0.883 -12.308 -27.750  1.00  0.00    -0.259 OA
BRANCH   2   4
ATOM      4  C   UNL     1       0.366 -11.140 -25.679  1.00  0.00     0.131 C 
BRANCH   4   5
ATOM      5  C   UNL     1       0.895 -12.534 -25.527  1.00  0.00    -0.021 C 
ATOM      6  C   UNL     1       0.708 -13.309 -24.451  1.00  0.00     0.005 C 
ENDBRANCH   4   5
ENDBRANCH   2   4
ENDBRANCH   1   2
BRANCH   1   7
ATOM      7  C   UNL     1      -3.043 -10.087 -27.755  1.00  0.00     0.174 C 
BRANCH   7   8
ATOM      8  C   UNL     1      -4.418 -10.087 -27.067  1.00  0.00     0.321 C 
ATOM      9  O   UNL     1      -5.106 -11.070 -26.852  1.00  0.00    -0.251 OA
BRANCH   8  10
ATOM     10  O   UNL     1      -4.776  -8.846 -26.646  1.00  0.00    -0.480 OA
ATOM     11  H   UNL     1      -4.174  -8.469 -25.975  1.00  0.00     0.296 HD
ENDBRANCH   8  10
ENDBRANCH   7   8
BRANCH   7  12
ATOM     12  N   UNL     1      -2.966  -8.929 -28.680  1.00  0.00    -0.318 NA
ATOM     13  H   UNL     1      -3.727  -9.003 -29.364  1.00  0.00     0.119 HD
ATOM     14  H   UNL     1      -2.117  -8.965 -29.244  1.00  0.00     0.119 HD
ENDBRANCH   7  12
ENDBRANCH   1   7
TORSDOF 7
ENDMDL
MODEL 6
REMARK VINA RESULT:      -5.0     16.024     17.746
REMARK SMILES C=CC[S@@](=O)C[C@H](N)C(=O)O
REMARK SMILES IDX 6 1 4 2 5 3 3 4 2 5 1 6 7 7 9 8 10 9 11 10 8 12
REMARK H PARENT 11 11 8 13 8 14
ROOT
ATOM      1  C   UNL     1       8.177  -0.633 -18.101  1.00  0.00     0.136 C 
ENDROOT
BRANCH   1   2
ATOM      2  S   UNL     1       6.453  -1.217 -18.271  1.00  0.00     0.027 S 
ATOM      3  O   UNL     1       6.177  -2.117 -17.100  1.00  0.00    -0.259 OA
BRANCH   2   4
ATOM      4  C   UNL     1       6.736  -2.294 -19.721  1.00  0.00     0.131 C 
BRANCH   4   5
ATOM      5  C   UNL     1       6.024  -1.740 -20.917  1.00  0.00    -0.021 C 
ATOM      6  C   UNL     1       5.418  -2.478 -21.856  1.00  0.00     0.005 C 
ENDBRANCH   4   5
ENDBRANCH   2   4
ENDBRANCH   1   2
BRANCH   1   7
ATOM      7  C   UNL     1       8.436   0.013 -16.736  1.00  0.00     0.174 C 
BRANCH   7   8
ATOM      8  C   UNL     1       9.354  -0.854 -15.859  1.00  0.00     0.321 C 
ATOM      9  O   UNL     1      10.487  -0.567 -15.513  1.00  0.00    -0.251 OA
BRANCH   8  10
ATOM     10  O   UNL     1       8.733  -1.985 -15.434  1.00  0.00    -0.480 OA
ATOM     11  H   UNL     1       8.606  -2.653 -16.135  1.00  0.00     0.296 HD
ENDBRANCH   8  10
ENDBRANCH   7   8
BRANCH   7  12
ATOM     12  N   UNL     1       9.053   1.352 -16.902  1.00  0.00    -0.318 NA
ATOM     13  H   UNL     1       9.959   1.242 -17.371  1.00  0.00     0.119 HD
ATOM     14  H   UNL     1       9.287   1.764 -15.999  1.00  0.00     0.119 HD
ENDBRANCH   7  12
ENDBRANCH   1   7
TORSDOF 7
ENDMDL
MODEL 7
REMARK VINA RESULT:      -4.9     12.668     14.115
REMARK SMILES C=CC[S@@](=O)C[C@H](N)C(=O)O
REMARK SMILES IDX 6 1 4 2 5 3 3 4 2 5 1 6 7 7 9 8 10 9 11 10 8 12
REMARK H PARENT 11 11 8 13 8 14
ROOT
ATOM      1  C   UNL     1       5.236   0.408 -26.446  1.00  0.00     0.136 C 
ENDROOT
BRANCH   1   2
ATOM      2  S   UNL     1       4.173  -0.905 -25.748  1.00  0.00     0.027 S 
ATOM      3  O   UNL     1       2.978  -0.226 -25.141  1.00  0.00    -0.259 OA
BRANCH   2   4
ATOM      4  C   UNL     1       5.283  -1.369 -24.372  1.00  0.00     0.131 C 
BRANCH   4   5
ATOM      5  C   UNL     1       4.513  -2.106 -23.319  1.00  0.00    -0.021 C 
ATOM      6  C   UNL     1       5.017  -2.511 -22.146  1.00  0.00     0.005 C 
ENDBRANCH   4   5
ENDBRANCH   2   4
ENDBRANCH   1   2
BRANCH   1   7
ATOM      7  C   UNL     1       6.039  -0.081 -27.656  1.00  0.00     0.174 C 
BRANCH   7   8
ATOM      8  C   UNL     1       5.917   0.881 -28.848  1.00  0.00     0.321 C 
ATOM      9  O   UNL     1       6.346   2.021 -28.890  1.00  0.00    -0.251 OA
BRANCH   8  10
ATOM     10  O   UNL     1       5.321   0.293 -29.918  1.00  0.00    -0.480 OA
ATOM     11  H   UNL     1       5.486  -0.668 -29.983  1.00  0.00     0.296 HD
ENDBRANCH   8  10
ENDBRANCH   7   8
BRANCH   7  12
ATOM     12  N   UNL     1       7.473  -0.232 -27.303  1.00  0.00    -0.318 NA
ATOM     13  H   UNL     1       7.800   0.641 -26.874  1.00  0.00     0.119 HD
ATOM     14  H   UNL     1       8.048  -0.331 -28.140  1.00  0.00     0.119 HD
ENDBRANCH   7  12
ENDBRANCH   1   7
TORSDOF 7
ENDMDL
MODEL 8
REMARK VINA RESULT:      -4.9     12.457     13.438
REMARK SMILES C=CC[S@@](=O)C[C@H](N)C(=O)O
REMARK SMILES IDX 6 1 4 2 5 3 3 4 2 5 1 6 7 7 9 8 10 9 11 10 8 12
REMARK H PARENT 11 11 8 13 8 14
ROOT
ATOM      1  C   UNL     1       5.405  -0.917 -24.614  1.00  0.00     0.136 C 
ENDROOT
BRANCH   1   2
ATOM      2  S   UNL     1       4.489  -2.166 -23.643  1.00  0.00     0.027 S 
ATOM      3  O   UNL     1       3.050  -1.737 -23.623  1.00  0.00    -0.259 OA
BRANCH   2   4
ATOM      4  C   UNL     1       5.201  -1.733 -22.016  1.00  0.00     0.131 C 
BRANCH   4   5
ATOM      5  C   UNL     1       5.885  -2.926 -21.422  1.00  0.00    -0.021 C 
ATOM      6  C   UNL     1       6.367  -2.989 -20.174  1.00  0.00     0.005 C 
ENDBRANCH   4   5
ENDBRANCH   2   4
ENDBRANCH   1   2
BRANCH   1   7
ATOM      7  C   UNL     1       4.650  -0.503 -25.882  1.00  0.00     0.174 C 
BRANCH   7   8
ATOM      8  C   UNL     1       5.583   0.152 -26.913  1.00  0.00     0.321 C 
ATOM      9  O   UNL     1       6.526   0.881 -26.658  1.00  0.00    -0.251 OA
BRANCH   8  10
ATOM     10  O   UNL     1       5.286  -0.229 -28.183  1.00  0.00    -0.480 OA
ATOM     11  H   UNL     1       4.390  -0.604 -28.283  1.00  0.00     0.296 HD
ENDBRANCH   8  10
ENDBRANCH   7   8
BRANCH   7  12
ATOM     12  N   UNL     1       3.993  -1.678 -26.505  1.00  0.00    -0.318 NA
ATOM     13  H   UNL     1       3.377  -2.117 -25.812  1.00  0.00     0.119 HD
ATOM     14  H   UNL     1       4.674  -2.403 -26.731  1.00  0.00     0.119 HD
ENDBRANCH   7  12
ENDBRANCH   1   7
TORSDOF 7
ENDMDL
MODEL 9
REMARK VINA RESULT:      -4.8     16.313     18.144
REMARK SMILES C=CC[S@@](=O)C[C@H](N)C(=O)O
REMARK SMILES IDX 6 1 4 2 5 3 3 4 2 5 1 6 7 7 9 8 10 9 11 10 8 12
REMARK H PARENT 11 11 8 13 8 14
ROOT
ATOM      1  C   UNL     1       7.333   0.079 -16.900  1.00  0.00     0.136 C 
ENDROOT
BRANCH   1   2
ATOM      2  S   UNL     1       6.088  -0.981 -17.717  1.00  0.00     0.027 S 
ATOM      3  O   UNL     1       5.974  -2.236 -16.899  1.00  0.00    -0.259 OA
BRANCH   2   4
ATOM      4  C   UNL     1       7.092  -1.389 -19.190  1.00  0.00     0.131 C 
BRANCH   4   5
ATOM      5  C   UNL     1       6.480  -2.545 -19.922  1.00  0.00    -0.021 C 
ATOM      6  C   UNL     1       5.968  -2.482 -21.158  1.00  0.00     0.005 C 
ENDBRANCH   4   5
ENDBRANCH   2   4
ENDBRANCH   1   2
BRANCH   1   7
ATOM      7  C   UNL     1       8.686  -0.627 -16.754  1.00  0.00     0.174 C 
BRANCH   7   8
ATOM      8  C   UNL     1       9.791   0.346 -16.310  1.00  0.00     0.321 C 
ATOM      9  O   UNL     1      10.896   0.030 -15.905  1.00  0.00    -0.251 OA
BRANCH   8  10
ATOM     10  O   UNL     1       9.428   1.643 -16.484  1.00  0.00    -0.480 OA
ATOM     11  H   UNL     1       8.877   1.999 -15.760  1.00  0.00     0.296 HD
ENDBRANCH   8  10
ENDBRANCH   7   8
BRANCH   7  12
ATOM     12  N   UNL     1       8.593  -1.733 -15.769  1.00  0.00    -0.318 NA
ATOM     13  H   UNL     1       7.687  -2.200 -15.882  1.00  0.00     0.119 HD
ATOM     14  H   UNL     1       8.574  -1.374 -14.814  1.00  0.00     0.119 HD
ENDBRANCH   7  12
ENDBRANCH   1   7
TORSDOF 7
ENDMDL
MODEL 10
REMARK VINA RESULT:      -4.6     12.008     13.062
REMARK SMILES C=CC[S@@](=O)C[C@H](N)C(=O)O
REMARK SMILES IDX 6 1 4 2 5 3 3 4 2 5 1 6 7 7 9 8 10 9 11 10 8 12
REMARK H PARENT 11 11 8 13 8 14
ROOT
ATOM      1  C   UNL     1       5.304  -0.945 -24.454  1.00  0.00     0.136 C 
ENDROOT
BRANCH   1   2
ATOM      2  S   UNL     1       4.658  -0.394 -26.072  1.00  0.00     0.027 S 
ATOM      3  O   UNL     1       4.011  -1.587 -26.717  1.00  0.00    -0.259 OA
BRANCH   2   4
ATOM      4  C   UNL     1       6.282  -0.162 -26.880  1.00  0.00     0.131 C 
BRANCH   4   5
ATOM      5  C   UNL     1       6.136   0.728 -28.077  1.00  0.00    -0.021 C 
ATOM      6  C   UNL     1       5.782   0.313 -29.301  1.00  0.00     0.005 C 
ENDBRANCH   4   5
ENDBRANCH   2   4
ENDBRANCH   1   2
BRANCH   1   7
ATOM      7  C   UNL     1       4.453  -2.064 -23.843  1.00  0.00     0.174 C 
BRANCH   7   8
ATOM      8  C   UNL     1       4.905  -2.409 -22.415  1.00  0.00     0.321 C 
ATOM      9  O   UNL     1       5.625  -1.723 -21.711  1.00  0.00    -0.251 OA
BRANCH   8  10
ATOM     10  O   UNL     1       4.347  -3.565 -21.970  1.00  0.00    -0.480 OA
ATOM     11  H   UNL     1       3.405  -3.480 -21.725  1.00  0.00     0.296 HD
ENDBRANCH   8  10
ENDBRANCH   7   8
BRANCH   7  12
ATOM     12  N   UNL     1       3.022  -1.673 -23.814  1.00  0.00    -0.318 NA
ATOM     13  H   UNL     1       2.893  -0.947 -23.101  1.00  0.00     0.119 HD
ATOM     14  H   UNL     1       2.436  -2.445 -23.496  1.00  0.00     0.119 HD
ENDBRANCH   7  12
ENDBRANCH   1   7
TORSDOF 7
ENDMDL
