MODEL 1
REMARK VINA RESULT:      -7.1      0.000      0.000
REMARK SMILES Oc1ccc(-c2ccc(O)cc2O)c(O)c1
REMARK SMILES IDX 3 1 4 2 5 3 14 4 16 5 2 6 1 7 6 9 12 10 7 11 11 12 8 13 9 14
REMARK SMILES IDX 13 15 10 17 15 19
REMARK H PARENT 1 8 13 16 10 18 15 20
ROOT
ATOM      1  C   UNL     1      -7.182   1.249 -32.981  1.00  0.00     0.047 A 
ATOM      2  C   UNL     1      -6.074   1.338 -32.136  1.00  0.00     0.016 A 
ATOM      3  C   UNL     1      -5.836   0.368 -31.146  1.00  0.00     0.027 A 
ATOM      4  C   UNL     1      -6.750  -0.696 -31.040  1.00  0.00     0.127 A 
ATOM      5  C   UNL     1      -7.861  -0.789 -31.879  1.00  0.00     0.093 A 
ATOM      6  C   UNL     1      -8.067   0.186 -32.846  1.00  0.00     0.119 A 
ENDROOT
BRANCH   6   7
ATOM      7  O   UNL     1      -9.136   0.139 -33.689  1.00  0.00    -0.508 OA
ATOM      8  H   UNL     1      -9.677  -0.635 -33.461  1.00  0.00     0.293 HD
ENDBRANCH   6   7
BRANCH   3   9
ATOM      9  C   UNL     1      -4.663   0.505 -30.264  1.00  0.00     0.027 A 
ATOM     10  C   UNL     1      -3.401  -0.032 -30.582  1.00  0.00     0.127 A 
ATOM     11  C   UNL     1      -4.786   1.208 -29.053  1.00  0.00     0.016 A 
ATOM     12  C   UNL     1      -2.305   0.128 -29.735  1.00  0.00     0.093 A 
ATOM     13  C   UNL     1      -3.693   1.368 -28.198  1.00  0.00     0.047 A 
ATOM     14  C   UNL     1      -2.461   0.828 -28.546  1.00  0.00     0.119 A 
BRANCH  10  15
ATOM     15  O   UNL     1      -3.164  -0.734 -31.735  1.00  0.00    -0.507 OA
ATOM     16  H   UNL     1      -3.604  -0.288 -32.481  1.00  0.00     0.293 HD
ENDBRANCH  10  15
BRANCH  14  17
ATOM     17  O   UNL     1      -1.421   1.010 -27.685  1.00  0.00    -0.508 OA
ATOM     18  H   UNL     1      -1.111   0.138 -27.385  1.00  0.00     0.293 HD
ENDBRANCH  14  17
ENDBRANCH   3   9
BRANCH   4  19
ATOM     19  O   UNL     1      -6.620  -1.696 -30.114  1.00  0.00    -0.507 OA
ATOM     20  H   UNL     1      -5.946  -1.443 -29.457  1.00  0.00     0.293 HD
ENDBRANCH   4  19
TORSDOF 5
ENDMDL
MODEL 2
REMARK VINA RESULT:      -7.1      0.057      5.694
REMARK SMILES Oc1ccc(-c2ccc(O)cc2O)c(O)c1
REMARK SMILES IDX 3 1 4 2 5 3 14 4 16 5 2 6 1 7 6 9 12 10 7 11 11 12 8 13 9 14
REMARK SMILES IDX 13 15 10 17 15 19
REMARK H PARENT 1 8 13 16 10 18 15 20
ROOT
ATOM      1  C   UNL     1      -3.723   1.288 -28.127  1.00  0.00     0.047 A 
ATOM      2  C   UNL     1      -4.808   1.136 -28.992  1.00  0.00     0.016 A 
ATOM      3  C   UNL     1      -4.664   0.483 -30.230  1.00  0.00     0.027 A 
ATOM      4  C   UNL     1      -3.391  -0.015 -30.561  1.00  0.00     0.127 A 
ATOM      5  C   UNL     1      -2.302   0.136 -29.702  1.00  0.00     0.093 A 
ATOM      6  C   UNL     1      -2.479   0.786 -28.488  1.00  0.00     0.119 A 
ENDROOT
BRANCH   6   7
ATOM      7  O   UNL     1      -1.447   0.958 -27.615  1.00  0.00    -0.508 OA
ATOM      8  H   UNL     1      -1.813   1.108 -26.727  1.00  0.00     0.293 HD
ENDBRANCH   6   7
BRANCH   3   9
ATOM      9  C   UNL     1      -5.829   0.355 -31.122  1.00  0.00     0.027 A 
ATOM     10  C   UNL     1      -6.758  -0.698 -31.020  1.00  0.00     0.127 A 
ATOM     11  C   UNL     1      -6.048   1.323 -32.119  1.00  0.00     0.016 A 
ATOM     12  C   UNL     1      -7.862  -0.783 -31.869  1.00  0.00     0.093 A 
ATOM     13  C   UNL     1      -7.149   1.241 -32.975  1.00  0.00     0.047 A 
ATOM     14  C   UNL     1      -8.047   0.190 -32.842  1.00  0.00     0.119 A 
BRANCH  10  15
ATOM     15  O   UNL     1      -6.648  -1.694 -30.087  1.00  0.00    -0.507 OA
ATOM     16  H   UNL     1      -5.877  -1.521 -29.517  1.00  0.00     0.293 HD
ENDBRANCH  10  15
BRANCH  14  17
ATOM     17  O   UNL     1      -9.108   0.150 -33.696  1.00  0.00    -0.508 OA
ATOM     18  H   UNL     1      -8.774   0.029 -34.601  1.00  0.00     0.293 HD
ENDBRANCH  14  17
ENDBRANCH   3   9
BRANCH   4  19
ATOM     19  O   UNL     1      -3.133  -0.667 -31.737  1.00  0.00    -0.507 OA
ATOM     20  H   UNL     1      -3.556  -1.544 -31.721  1.00  0.00     0.293 HD
ENDBRANCH   4  19
TORSDOF 5
ENDMDL
MODEL 3
REMARK VINA RESULT:      -6.7      1.904      5.892
REMARK SMILES Oc1ccc(-c2ccc(O)cc2O)c(O)c1
REMARK SMILES IDX 3 1 4 2 5 3 14 4 16 5 2 6 1 7 6 9 12 10 7 11 11 12 8 13 9 14
REMARK SMILES IDX 13 15 10 17 15 19
REMARK H PARENT 1 8 13 16 10 18 15 20
ROOT
ATOM      1  C   UNL     1      -5.297   3.180 -29.798  1.00  0.00     0.047 A 
ATOM      2  C   UNL     1      -6.481   2.746 -30.398  1.00  0.00     0.016 A 
ATOM      3  C   UNL     1      -6.623   1.422 -30.849  1.00  0.00     0.027 A 
ATOM      4  C   UNL     1      -5.534   0.550 -30.669  1.00  0.00     0.127 A 
ATOM      5  C   UNL     1      -4.347   0.978 -30.073  1.00  0.00     0.093 A 
ATOM      6  C   UNL     1      -4.240   2.293 -29.639  1.00  0.00     0.119 A 
ENDROOT
BRANCH   6   7
ATOM      7  O   UNL     1      -3.103   2.758 -29.050  1.00  0.00    -0.508 OA
ATOM      8  H   UNL     1      -3.323   3.077 -28.159  1.00  0.00     0.293 HD
ENDBRANCH   6   7
BRANCH   3   9
ATOM      9  C   UNL     1      -7.882   1.006 -31.490  1.00  0.00     0.027 A 
ATOM     10  C   UNL     1      -8.065   1.006 -32.886  1.00  0.00     0.127 A 
ATOM     11  C   UNL     1      -8.957   0.576 -30.692  1.00  0.00     0.016 A 
ATOM     12  C   UNL     1      -9.265   0.590 -33.466  1.00  0.00     0.093 A 
ATOM     13  C   UNL     1     -10.162   0.163 -31.266  1.00  0.00     0.047 A 
ATOM     14  C   UNL     1     -10.305   0.172 -32.647  1.00  0.00     0.119 A 
BRANCH  10  15
ATOM     15  O   UNL     1      -7.088   1.402 -33.761  1.00  0.00    -0.507 OA
ATOM     16  H   UNL     1      -7.138   2.366 -33.887  1.00  0.00     0.293 HD
ENDBRANCH  10  15
BRANCH  14  17
ATOM     17  O   UNL     1     -11.496  -0.241 -33.165  1.00  0.00    -0.508 OA
ATOM     18  H   UNL     1     -12.209   0.279 -32.757  1.00  0.00     0.293 HD
ENDBRANCH  14  17
ENDBRANCH   3   9
BRANCH   4  19
ATOM     19  O   UNL     1      -5.558  -0.760 -31.069  1.00  0.00    -0.507 OA
ATOM     20  H   UNL     1      -6.350  -1.194 -30.705  1.00  0.00     0.293 HD
ENDBRANCH   4  19
TORSDOF 5
ENDMDL
MODEL 4
REMARK VINA RESULT:      -6.7      1.905      2.845
REMARK SMILES Oc1ccc(-c2ccc(O)cc2O)c(O)c1
REMARK SMILES IDX 3 1 4 2 5 3 14 4 16 5 2 6 1 7 6 9 12 10 7 11 11 12 8 13 9 14
REMARK SMILES IDX 13 15 10 17 15 19
REMARK H PARENT 1 8 13 16 10 18 15 20
ROOT
ATOM      1  C   UNL     1     -10.173   0.214 -31.315  1.00  0.00     0.047 A 
ATOM      2  C   UNL     1      -8.968   0.631 -30.744  1.00  0.00     0.016 A 
ATOM      3  C   UNL     1      -7.880   1.018 -31.547  1.00  0.00     0.027 A 
ATOM      4  C   UNL     1      -8.050   0.974 -32.943  1.00  0.00     0.127 A 
ATOM      5  C   UNL     1      -9.250   0.555 -33.519  1.00  0.00     0.093 A 
ATOM      6  C   UNL     1     -10.304   0.180 -32.697  1.00  0.00     0.119 A 
ENDROOT
BRANCH   6   7
ATOM      7  O   UNL     1     -11.495  -0.235 -33.212  1.00  0.00    -0.508 OA
ATOM      8  H   UNL     1     -11.403  -0.324 -34.175  1.00  0.00     0.293 HD
ENDBRANCH   6   7
BRANCH   3   9
ATOM      9  C   UNL     1      -6.621   1.438 -30.908  1.00  0.00     0.027 A 
ATOM     10  C   UNL     1      -5.548   0.556 -30.680  1.00  0.00     0.127 A 
ATOM     11  C   UNL     1      -6.460   2.777 -30.509  1.00  0.00     0.016 A 
ATOM     12  C   UNL     1      -4.361   0.988 -30.087  1.00  0.00     0.093 A 
ATOM     13  C   UNL     1      -5.276   3.215 -29.911  1.00  0.00     0.047 A 
ATOM     14  C   UNL     1      -4.236   2.317 -29.706  1.00  0.00     0.119 A 
BRANCH  10  15
ATOM     15  O   UNL     1      -5.591  -0.768 -31.028  1.00  0.00    -0.507 OA
ATOM     16  H   UNL     1      -5.339  -0.865 -31.963  1.00  0.00     0.293 HD
ENDBRANCH  10  15
BRANCH  14  17
ATOM     17  O   UNL     1      -3.098   2.786 -29.121  1.00  0.00    -0.508 OA
ATOM     18  H   UNL     1      -2.652   2.047 -28.674  1.00  0.00     0.293 HD
ENDBRANCH  14  17
ENDBRANCH   3   9
BRANCH   4  19
ATOM     19  O   UNL     1      -7.060   1.326 -33.821  1.00  0.00    -0.507 OA
ATOM     20  H   UNL     1      -6.682   0.523 -34.222  1.00  0.00     0.293 HD
ENDBRANCH   4  19
TORSDOF 5
ENDMDL
MODEL 5
REMARK VINA RESULT:      -6.7      1.821      5.848
REMARK SMILES Oc1ccc(-c2ccc(O)cc2O)c(O)c1
REMARK SMILES IDX 3 1 4 2 5 3 14 4 16 5 2 6 1 7 6 9 12 10 7 11 11 12 8 13 9 14
REMARK SMILES IDX 13 15 10 17 15 19
REMARK H PARENT 1 8 13 16 10 18 15 20
ROOT
ATOM      1  C   UNL     1      -3.617   0.442 -27.436  1.00  0.00     0.047 A 
ATOM      2  C   UNL     1      -4.769  -0.166 -27.938  1.00  0.00     0.016 A 
ATOM      3  C   UNL     1      -4.777  -0.769 -29.209  1.00  0.00     0.027 A 
ATOM      4  C   UNL     1      -3.583  -0.740 -29.952  1.00  0.00     0.127 A 
ATOM      5  C   UNL     1      -2.429  -0.131 -29.458  1.00  0.00     0.093 A 
ATOM      6  C   UNL     1      -2.457   0.455 -28.199  1.00  0.00     0.119 A 
ENDROOT
BRANCH   6   7
ATOM      7  O   UNL     1      -1.356   1.061 -27.672  1.00  0.00    -0.508 OA
ATOM      8  H   UNL     1      -1.644   1.824 -27.144  1.00  0.00     0.293 HD
ENDBRANCH   6   7
BRANCH   3   9
ATOM      9  C   UNL     1      -6.016  -1.388 -29.710  1.00  0.00     0.027 A 
ATOM     10  C   UNL     1      -6.736  -0.878 -30.807  1.00  0.00     0.127 A 
ATOM     11  C   UNL     1      -6.513  -2.546 -29.086  1.00  0.00     0.016 A 
ATOM     12  C   UNL     1      -7.898  -1.496 -31.269  1.00  0.00     0.093 A 
ATOM     13  C   UNL     1      -7.678  -3.168 -29.542  1.00  0.00     0.047 A 
ATOM     14  C   UNL     1      -8.360  -2.639 -30.630  1.00  0.00     0.119 A 
BRANCH  10  15
ATOM     15  O   UNL     1      -6.346   0.243 -31.492  1.00  0.00    -0.507 OA
ATOM     16  H   UNL     1      -6.571   1.035 -30.972  1.00  0.00     0.293 HD
ENDBRANCH  10  15
BRANCH  14  17
ATOM     17  O   UNL     1      -9.491  -3.277 -31.042  1.00  0.00    -0.508 OA
ATOM     18  H   UNL     1      -9.340  -3.629 -31.936  1.00  0.00     0.293 HD
ENDBRANCH  14  17
ENDBRANCH   3   9
BRANCH   4  19
ATOM     19  O   UNL     1      -3.474  -1.293 -31.200  1.00  0.00    -0.507 OA
ATOM     20  H   UNL     1      -4.362  -1.412 -31.581  1.00  0.00     0.293 HD
ENDBRANCH   4  19
TORSDOF 5
ENDMDL
MODEL 6
REMARK VINA RESULT:      -6.6      1.932      2.753
REMARK SMILES Oc1ccc(-c2ccc(O)cc2O)c(O)c1
REMARK SMILES IDX 3 1 4 2 5 3 14 4 16 5 2 6 1 7 6 9 12 10 7 11 11 12 8 13 9 14
REMARK SMILES IDX 13 15 10 17 15 19
REMARK H PARENT 1 8 13 16 10 18 15 20
ROOT
ATOM      1  C   UNL     1      -7.816  -3.281 -29.349  1.00  0.00     0.047 A 
ATOM      2  C   UNL     1      -6.658  -2.636 -28.909  1.00  0.00     0.016 A 
ATOM      3  C   UNL     1      -6.153  -1.511 -29.586  1.00  0.00     0.027 A 
ATOM      4  C   UNL     1      -6.858  -1.057 -30.715  1.00  0.00     0.127 A 
ATOM      5  C   UNL     1      -8.014  -1.698 -31.161  1.00  0.00     0.093 A 
ATOM      6  C   UNL     1      -8.485  -2.807 -30.470  1.00  0.00     0.119 A 
ENDROOT
BRANCH   6   7
ATOM      7  O   UNL     1      -9.610  -3.467 -30.865  1.00  0.00    -0.508 OA
ATOM      8  H   UNL     1     -10.119  -2.887 -31.455  1.00  0.00     0.293 HD
ENDBRANCH   6   7
BRANCH   3   9
ATOM      9  C   UNL     1      -4.920  -0.867 -29.101  1.00  0.00     0.027 A 
ATOM     10  C   UNL     1      -3.666  -1.058 -29.712  1.00  0.00     0.127 A 
ATOM     11  C   UNL     1      -4.978  -0.013 -27.985  1.00  0.00     0.016 A 
ATOM     12  C   UNL     1      -2.519  -0.420 -29.239  1.00  0.00     0.093 A 
ATOM     13  C   UNL     1      -3.832   0.625 -27.504  1.00  0.00     0.047 A 
ATOM     14  C   UNL     1      -2.612   0.417 -28.136  1.00  0.00     0.119 A 
BRANCH  10  15
ATOM     15  O   UNL     1      -3.490  -1.865 -30.804  1.00  0.00    -0.507 OA
ATOM     16  H   UNL     1      -2.938  -2.628 -30.557  1.00  0.00     0.293 HD
ENDBRANCH  10  15
BRANCH  14  17
ATOM     17  O   UNL     1      -1.520   1.060 -27.636  1.00  0.00    -0.508 OA
ATOM     18  H   UNL     1      -1.812   1.886 -27.215  1.00  0.00     0.293 HD
ENDBRANCH  14  17
ENDBRANCH   3   9
BRANCH   4  19
ATOM     19  O   UNL     1      -6.459   0.027 -31.451  1.00  0.00    -0.507 OA
ATOM     20  H   UNL     1      -6.634  -0.141 -32.395  1.00  0.00     0.293 HD
ENDBRANCH   4  19
TORSDOF 5
ENDMDL
MODEL 7
REMARK VINA RESULT:      -6.5      0.999      5.689
REMARK SMILES Oc1ccc(-c2ccc(O)cc2O)c(O)c1
REMARK SMILES IDX 3 1 4 2 5 3 14 4 16 5 2 6 1 7 6 9 12 10 7 11 11 12 8 13 9 14
REMARK SMILES IDX 13 15 10 17 15 19
REMARK H PARENT 1 8 13 16 10 18 15 20
ROOT
ATOM      1  C   UNL     1      -2.375   0.163 -29.750  1.00  0.00     0.047 A 
ATOM      2  C   UNL     1      -3.484   0.039 -30.590  1.00  0.00     0.016 A 
ATOM      3  C   UNL     1      -4.728   0.593 -30.236  1.00  0.00     0.027 A 
ATOM      4  C   UNL     1      -4.813   1.279 -29.011  1.00  0.00     0.127 A 
ATOM      5  C   UNL     1      -3.709   1.403 -28.166  1.00  0.00     0.093 A 
ATOM      6  C   UNL     1      -2.496   0.843 -28.545  1.00  0.00     0.119 A 
ENDROOT
BRANCH   6   7
ATOM      7  O   UNL     1      -1.390   0.939 -27.755  1.00  0.00    -0.508 OA
ATOM      8  H   UNL     1      -0.847   0.144 -27.885  1.00  0.00     0.293 HD
ENDBRANCH   6   7
BRANCH   3   9
ATOM      9  C   UNL     1      -5.878   0.429 -31.142  1.00  0.00     0.027 A 
ATOM     10  C   UNL     1      -6.792  -0.636 -31.032  1.00  0.00     0.127 A 
ATOM     11  C   UNL     1      -6.095   1.372 -32.163  1.00  0.00     0.016 A 
ATOM     12  C   UNL     1      -7.882  -0.755 -31.894  1.00  0.00     0.093 A 
ATOM     13  C   UNL     1      -7.182   1.255 -33.033  1.00  0.00     0.047 A 
ATOM     14  C   UNL     1      -8.067   0.194 -32.891  1.00  0.00     0.119 A 
BRANCH  10  15
ATOM     15  O   UNL     1      -6.681  -1.611 -30.076  1.00  0.00    -0.507 OA
ATOM     16  H   UNL     1      -6.517  -2.469 -30.506  1.00  0.00     0.293 HD
ENDBRANCH  10  15
BRANCH  14  17
ATOM     17  O   UNL     1      -9.114   0.119 -33.759  1.00  0.00    -0.508 OA
ATOM     18  H   UNL     1      -9.925   0.383 -33.291  1.00  0.00     0.293 HD
ENDBRANCH  14  17
ENDBRANCH   3   9
BRANCH   4  19
ATOM     19  O   UNL     1      -5.971   1.857 -28.564  1.00  0.00    -0.507 OA
ATOM     20  H   UNL     1      -6.682   1.699 -29.211  1.00  0.00     0.293 HD
ENDBRANCH   4  19
TORSDOF 5
ENDMDL
MODEL 8
REMARK VINA RESULT:      -6.5      1.823      2.307
REMARK SMILES Oc1ccc(-c2ccc(O)cc2O)c(O)c1
REMARK SMILES IDX 3 1 4 2 5 3 14 4 16 5 2 6 1 7 6 9 12 10 7 11 11 12 8 13 9 14
REMARK SMILES IDX 13 15 10 17 15 19
REMARK H PARENT 1 8 13 16 10 18 15 20
ROOT
ATOM      1  C   UNL     1      -8.864   0.739 -33.775  1.00  0.00     0.047 A 
ATOM      2  C   UNL     1      -7.729   1.144 -33.070  1.00  0.00     0.016 A 
ATOM      3  C   UNL     1      -7.646   0.986 -31.675  1.00  0.00     0.027 A 
ATOM      4  C   UNL     1      -8.744   0.402 -31.017  1.00  0.00     0.127 A 
ATOM      5  C   UNL     1      -9.883  -0.002 -31.716  1.00  0.00     0.093 A 
ATOM      6  C   UNL     1      -9.932   0.169 -33.093  1.00  0.00     0.119 A 
ENDROOT
BRANCH   6   7
ATOM      7  O   UNL     1     -11.020  -0.211 -33.819  1.00  0.00    -0.508 OA
ATOM      8  H   UNL     1     -11.429   0.582 -34.203  1.00  0.00     0.293 HD
ENDBRANCH   6   7
BRANCH   3   9
ATOM      9  C   UNL     1      -6.438   1.440 -30.965  1.00  0.00     0.027 A 
ATOM     10  C   UNL     1      -5.342   0.595 -30.704  1.00  0.00     0.127 A 
ATOM     11  C   UNL     1      -6.350   2.774 -30.529  1.00  0.00     0.016 A 
ATOM     12  C   UNL     1      -4.204   1.057 -30.044  1.00  0.00     0.093 A 
ATOM     13  C   UNL     1      -5.215   3.242 -29.863  1.00  0.00     0.047 A 
ATOM     14  C   UNL     1      -4.151   2.381 -29.627  1.00  0.00     0.119 A 
BRANCH  10  15
ATOM     15  O   UNL     1      -5.316  -0.721 -31.084  1.00  0.00    -0.507 OA
ATOM     16  H   UNL     1      -5.122  -0.779 -32.036  1.00  0.00     0.293 HD
ENDBRANCH  10  15
BRANCH  14  17
ATOM     17  O   UNL     1      -3.062   2.879 -28.977  1.00  0.00    -0.508 OA
ATOM     18  H   UNL     1      -2.664   2.167 -28.448  1.00  0.00     0.293 HD
ENDBRANCH  14  17
ENDBRANCH   3   9
BRANCH   4  19
ATOM     19  O   UNL     1      -8.775   0.200 -29.663  1.00  0.00    -0.507 OA
ATOM     20  H   UNL     1      -7.868   0.228 -29.311  1.00  0.00     0.293 HD
ENDBRANCH   4  19
TORSDOF 5
ENDMDL
MODEL 9
REMARK VINA RESULT:      -6.5      1.016      1.738
REMARK SMILES Oc1ccc(-c2ccc(O)cc2O)c(O)c1
REMARK SMILES IDX 3 1 4 2 5 3 14 4 16 5 2 6 1 7 6 9 12 10 7 11 11 12 8 13 9 14
REMARK SMILES IDX 13 15 10 17 15 19
REMARK H PARENT 1 8 13 16 10 18 15 20
ROOT
ATOM      1  C   UNL     1      -7.229   1.134 -32.970  1.00  0.00     0.047 A 
ATOM      2  C   UNL     1      -6.136   1.278 -32.113  1.00  0.00     0.016 A 
ATOM      3  C   UNL     1      -5.901   0.356 -31.076  1.00  0.00     0.027 A 
ATOM      4  C   UNL     1      -6.802  -0.716 -30.939  1.00  0.00     0.127 A 
ATOM      5  C   UNL     1      -7.897  -0.863 -31.791  1.00  0.00     0.093 A 
ATOM      6  C   UNL     1      -8.100   0.065 -32.803  1.00  0.00     0.119 A 
ENDROOT
BRANCH   6   7
ATOM      7  O   UNL     1      -9.154  -0.036 -33.661  1.00  0.00    -0.508 OA
ATOM      8  H   UNL     1      -9.952   0.290 -33.212  1.00  0.00     0.293 HD
ENDBRANCH   6   7
BRANCH   3   9
ATOM      9  C   UNL     1      -4.746   0.550 -30.183  1.00  0.00     0.027 A 
ATOM     10  C   UNL     1      -4.827   1.267 -28.974  1.00  0.00     0.127 A 
ATOM     11  C   UNL     1      -3.502  -0.007 -30.529  1.00  0.00     0.016 A 
ATOM     12  C   UNL     1      -3.719   1.419 -28.140  1.00  0.00     0.093 A 
ATOM     13  C   UNL     1      -2.388   0.145 -29.700  1.00  0.00     0.047 A 
ATOM     14  C   UNL     1      -2.505   0.856 -28.512  1.00  0.00     0.119 A 
BRANCH  10  15
ATOM     15  O   UNL     1      -5.986   1.850 -28.535  1.00  0.00    -0.507 OA
ATOM     16  H   UNL     1      -5.792   2.415 -27.765  1.00  0.00     0.293 HD
ENDBRANCH  10  15
BRANCH  14  17
ATOM     17  O   UNL     1      -1.394   0.979 -27.733  1.00  0.00    -0.508 OA
ATOM     18  H   UNL     1      -0.652   0.537 -28.178  1.00  0.00     0.293 HD
ENDBRANCH  14  17
ENDBRANCH   3   9
BRANCH   4  19
ATOM     19  O   UNL     1      -6.673  -1.672 -29.967  1.00  0.00    -0.507 OA
ATOM     20  H   UNL     1      -6.130  -2.407 -30.305  1.00  0.00     0.293 HD
ENDBRANCH   4  19
TORSDOF 5
ENDMDL
MODEL 10
REMARK VINA RESULT:      -6.5      1.952      6.033
REMARK SMILES Oc1ccc(-c2ccc(O)cc2O)c(O)c1
REMARK SMILES IDX 3 1 4 2 5 3 14 4 16 5 2 6 1 7 6 9 12 10 7 11 11 12 8 13 9 14
REMARK SMILES IDX 13 15 10 17 15 19
REMARK H PARENT 1 8 13 16 10 18 15 20
ROOT
ATOM      1  C   UNL     1      -5.300   3.211 -29.587  1.00  0.00     0.047 A 
ATOM      2  C   UNL     1      -6.489   2.762 -30.166  1.00  0.00     0.016 A 
ATOM      3  C   UNL     1      -6.583   1.476 -30.726  1.00  0.00     0.027 A 
ATOM      4  C   UNL     1      -5.440   0.657 -30.677  1.00  0.00     0.127 A 
ATOM      5  C   UNL     1      -4.248   1.100 -30.103  1.00  0.00     0.093 A 
ATOM      6  C   UNL     1      -4.190   2.377 -29.559  1.00  0.00     0.119 A 
ENDROOT
BRANCH   6   7
ATOM      7  O   UNL     1      -3.050   2.855 -28.987  1.00  0.00    -0.508 OA
ATOM      8  H   UNL     1      -2.371   2.160 -29.018  1.00  0.00     0.293 HD
ENDBRANCH   6   7
BRANCH   3   9
ATOM      9  C   UNL     1      -7.850   1.044 -31.341  1.00  0.00     0.027 A 
ATOM     10  C   UNL     1      -8.837   0.329 -30.636  1.00  0.00     0.127 A 
ATOM     11  C   UNL     1      -8.109   1.358 -32.686  1.00  0.00     0.016 A 
ATOM     12  C   UNL     1     -10.035  -0.052 -31.240  1.00  0.00     0.093 A 
ATOM     13  C   UNL     1      -9.306   0.976 -33.299  1.00  0.00     0.047 A 
ATOM     14  C   UNL     1     -10.259   0.275 -32.571  1.00  0.00     0.119 A 
BRANCH  10  15
ATOM     15  O   UNL     1      -8.694  -0.031 -29.321  1.00  0.00    -0.507 OA
ATOM     16  H   UNL     1      -7.747  -0.084 -29.102  1.00  0.00     0.293 HD
ENDBRANCH  10  15
BRANCH  14  17
ATOM     17  O   UNL     1     -11.412  -0.077 -33.207  1.00  0.00    -0.508 OA
ATOM     18  H   UNL     1     -11.414   0.328 -34.091  1.00  0.00     0.293 HD
ENDBRANCH  14  17
ENDBRANCH   3   9
BRANCH   4  19
ATOM     19  O   UNL     1      -5.415  -0.613 -31.191  1.00  0.00    -0.507 OA
ATOM     20  H   UNL     1      -6.028  -0.668 -31.946  1.00  0.00     0.293 HD
ENDBRANCH   4  19
TORSDOF 5
ENDMDL
