MODEL 1
REMARK VINA RESULT:      -6.9      0.000      0.000
REMARK SMILES Oc1ccc(O)c(-c2ccccc2)c1
REMARK SMILES IDX 7 1 5 2 4 3 3 4 2 5 14 6 8 7 11 8 10 9 12 10 9 11 13 12 6 13
REMARK SMILES IDX 1 15
REMARK H PARENT 6 14 1 16
ROOT
ATOM      1  C   UNL     1       9.203   0.305 -16.159  1.00  0.00     0.027 A 
ATOM      2  C   UNL     1       9.033   1.638 -15.742  1.00  0.00     0.123 A 
ATOM      3  C   UNL     1       9.987   2.280 -14.950  1.00  0.00     0.050 A 
ATOM      4  C   UNL     1      11.133   1.598 -14.548  1.00  0.00     0.050 A 
ATOM      5  C   UNL     1      11.309   0.276 -14.943  1.00  0.00     0.116 A 
ATOM      6  C   UNL     1      10.363  -0.366 -15.738  1.00  0.00     0.058 A 
ENDROOT
BRANCH   1   7
ATOM      7  C   UNL     1       8.229  -0.390 -17.012  1.00  0.00    -0.015 A 
ATOM      8  C   UNL     1       6.375  -1.740 -18.642  1.00  0.00     0.000 A 
ATOM      9  C   UNL     1       6.216  -1.741 -17.258  1.00  0.00     0.001 A 
ATOM     10  C   UNL     1       7.451  -1.067 -19.218  1.00  0.00     0.001 A 
ATOM     11  C   UNL     1       7.136  -1.070 -16.449  1.00  0.00     0.009 A 
ATOM     12  C   UNL     1       8.371  -0.396 -18.409  1.00  0.00     0.009 A 
ENDBRANCH   1   7
BRANCH   2  13
ATOM     13  O   UNL     1       7.928   2.380 -16.064  1.00  0.00    -0.507 OA
ATOM     14  H   UNL     1       8.224   3.191 -16.513  1.00  0.00     0.293 HD
ENDBRANCH   2  13
BRANCH   5  15
ATOM     15  O   UNL     1      12.412  -0.434 -14.572  1.00  0.00    -0.508 OA
ATOM     16  H   UNL     1      12.780  -0.870 -15.358  1.00  0.00     0.293 HD
ENDBRANCH   5  15
TORSDOF 3
ENDMDL
MODEL 2
REMARK VINA RESULT:      -6.6     17.053     19.860
REMARK SMILES Oc1ccc(O)c(-c2ccccc2)c1
REMARK SMILES IDX 7 1 5 2 4 3 3 4 2 5 14 6 8 7 11 8 10 9 12 10 9 11 13 12 6 13
REMARK SMILES IDX 1 15
REMARK H PARENT 6 14 1 16
ROOT
ATOM      1  C   UNL     1      -4.601   0.214 -30.145  1.00  0.00     0.027 A 
ATOM      2  C   UNL     1      -3.309  -0.132 -30.580  1.00  0.00     0.123 A 
ATOM      3  C   UNL     1      -2.226  -0.156 -29.700  1.00  0.00     0.050 A 
ATOM      4  C   UNL     1      -2.409   0.177 -28.360  1.00  0.00     0.050 A 
ATOM      5  C   UNL     1      -3.679   0.532 -27.917  1.00  0.00     0.116 A 
ATOM      6  C   UNL     1      -4.763   0.552 -28.790  1.00  0.00     0.058 A 
ENDROOT
BRANCH   1   7
ATOM      7  C   UNL     1      -5.766   0.226 -31.041  1.00  0.00    -0.015 A 
ATOM      8  C   UNL     1      -8.004   0.261 -32.745  1.00  0.00     0.000 A 
ATOM      9  C   UNL     1      -7.038   1.260 -32.844  1.00  0.00     0.001 A 
ATOM     10  C   UNL     1      -7.859  -0.756 -31.804  1.00  0.00     0.001 A 
ATOM     11  C   UNL     1      -5.926   1.241 -31.999  1.00  0.00     0.009 A 
ATOM     12  C   UNL     1      -6.748  -0.774 -30.959  1.00  0.00     0.009 A 
ENDBRANCH   1   7
BRANCH   2  13
ATOM     13  O   UNL     1      -3.027  -0.447 -31.883  1.00  0.00    -0.507 OA
ATOM     14  H   UNL     1      -3.866  -0.509 -32.372  1.00  0.00     0.293 HD
ENDBRANCH   2  13
BRANCH   5  15
ATOM     15  O   UNL     1      -3.907   0.870 -26.616  1.00  0.00    -0.508 OA
ATOM     16  H   UNL     1      -3.993   0.054 -26.094  1.00  0.00     0.293 HD
ENDBRANCH   5  15
TORSDOF 3
ENDMDL
MODEL 3
REMARK VINA RESULT:      -6.4     19.364     22.198
REMARK SMILES Oc1ccc(O)c(-c2ccccc2)c1
REMARK SMILES IDX 7 1 5 2 4 3 3 4 2 5 14 6 8 7 11 8 10 9 12 10 9 11 13 12 6 13
REMARK SMILES IDX 1 15
REMARK H PARENT 6 14 1 16
ROOT
ATOM      1  C   UNL     1      -6.738  -0.084 -31.374  1.00  0.00     0.027 A 
ATOM      2  C   UNL     1      -6.794  -1.231 -30.561  1.00  0.00     0.123 A 
ATOM      3  C   UNL     1      -5.653  -1.735 -29.935  1.00  0.00     0.050 A 
ATOM      4  C   UNL     1      -4.422  -1.109 -30.117  1.00  0.00     0.050 A 
ATOM      5  C   UNL     1      -4.349   0.019 -30.927  1.00  0.00     0.116 A 
ATOM      6  C   UNL     1      -5.486   0.530 -31.549  1.00  0.00     0.058 A 
ENDROOT
BRANCH   1   7
ATOM      7  C   UNL     1      -7.925   0.485 -32.028  1.00  0.00    -0.015 A 
ATOM      8  C   UNL     1     -10.209   1.563 -33.268  1.00  0.00     0.000 A 
ATOM      9  C   UNL     1      -9.835   1.999 -31.999  1.00  0.00     0.001 A 
ATOM     10  C   UNL     1      -9.450   0.595 -33.923  1.00  0.00     0.001 A 
ATOM     11  C   UNL     1      -8.700   1.465 -31.384  1.00  0.00     0.009 A 
ATOM     12  C   UNL     1      -8.315   0.061 -33.308  1.00  0.00     0.009 A 
ENDBRANCH   1   7
BRANCH   2  13
ATOM     13  O   UNL     1      -7.952  -1.930 -30.345  1.00  0.00    -0.507 OA
ATOM     14  H   UNL     1      -8.527  -1.399 -29.766  1.00  0.00     0.293 HD
ENDBRANCH   2  13
BRANCH   5  15
ATOM     15  O   UNL     1      -3.167   0.665 -31.139  1.00  0.00    -0.508 OA
ATOM     16  H   UNL     1      -2.900   1.101 -30.313  1.00  0.00     0.293 HD
ENDBRANCH   5  15
TORSDOF 3
ENDMDL
MODEL 4
REMARK VINA RESULT:      -6.3     17.870     20.609
REMARK SMILES Oc1ccc(O)c(-c2ccccc2)c1
REMARK SMILES IDX 7 1 5 2 4 3 3 4 2 5 14 6 8 7 11 8 10 9 12 10 9 11 13 12 6 13
REMARK SMILES IDX 1 15
REMARK H PARENT 6 14 1 16
ROOT
ATOM      1  C   UNL     1      -5.682  -0.877 -30.073  1.00  0.00     0.027 A 
ATOM      2  C   UNL     1      -4.312  -1.145 -30.241  1.00  0.00     0.123 A 
ATOM      3  C   UNL     1      -3.540  -1.670 -29.202  1.00  0.00     0.050 A 
ATOM      4  C   UNL     1      -4.121  -1.929 -27.963  1.00  0.00     0.050 A 
ATOM      5  C   UNL     1      -5.473  -1.659 -27.779  1.00  0.00     0.116 A 
ATOM      6  C   UNL     1      -6.248  -1.142 -28.814  1.00  0.00     0.058 A 
ENDROOT
BRANCH   1   7
ATOM      7  C   UNL     1      -6.526  -0.348 -31.153  1.00  0.00    -0.015 A 
ATOM      8  C   UNL     1      -8.134   0.652 -33.234  1.00  0.00     0.000 A 
ATOM      9  C   UNL     1      -8.511  -0.505 -32.558  1.00  0.00     0.001 A 
ATOM     10  C   UNL     1      -6.961   1.316 -32.877  1.00  0.00     0.001 A 
ATOM     11  C   UNL     1      -7.714  -1.001 -31.523  1.00  0.00     0.009 A 
ATOM     12  C   UNL     1      -6.164   0.820 -31.844  1.00  0.00     0.009 A 
ENDBRANCH   1   7
BRANCH   2  13
ATOM     13  O   UNL     1      -3.646  -0.896 -31.412  1.00  0.00    -0.507 OA
ATOM     14  H   UNL     1      -2.700  -0.787 -31.209  1.00  0.00     0.293 HD
ENDBRANCH   2  13
BRANCH   5  15
ATOM     15  O   UNL     1      -6.086  -1.893 -26.584  1.00  0.00    -0.508 OA
ATOM     16  H   UNL     1      -5.466  -1.676 -25.869  1.00  0.00     0.293 HD
ENDBRANCH   5  15
TORSDOF 3
ENDMDL
MODEL 5
REMARK VINA RESULT:      -6.3     17.017     18.373
REMARK SMILES Oc1ccc(O)c(-c2ccccc2)c1
REMARK SMILES IDX 7 1 5 2 4 3 3 4 2 5 14 6 8 7 11 8 10 9 12 10 9 11 13 12 6 13
REMARK SMILES IDX 1 15
REMARK H PARENT 6 14 1 16
ROOT
ATOM      1  C   UNL     1      -3.689   1.189 -28.934  1.00  0.00     0.027 A 
ATOM      2  C   UNL     1      -3.885   0.211 -27.942  1.00  0.00     0.123 A 
ATOM      3  C   UNL     1      -3.786  -1.151 -28.232  1.00  0.00     0.050 A 
ATOM      4  C   UNL     1      -3.497  -1.568 -29.529  1.00  0.00     0.050 A 
ATOM      5  C   UNL     1      -3.312  -0.614 -30.523  1.00  0.00     0.116 A 
ATOM      6  C   UNL     1      -3.404   0.746 -30.237  1.00  0.00     0.058 A 
ENDROOT
BRANCH   1   7
ATOM      7  C   UNL     1      -3.763   2.630 -28.655  1.00  0.00    -0.015 A 
ATOM      8  C   UNL     1      -3.901   5.393 -28.142  1.00  0.00     0.000 A 
ATOM      9  C   UNL     1      -5.012   4.722 -28.648  1.00  0.00     0.001 A 
ATOM     10  C   UNL     1      -2.723   4.693 -27.887  1.00  0.00     0.001 A 
ATOM     11  C   UNL     1      -4.944   3.350 -28.901  1.00  0.00     0.009 A 
ATOM     12  C   UNL     1      -2.654   3.321 -28.141  1.00  0.00     0.009 A 
ENDBRANCH   1   7
BRANCH   2  13
ATOM     13  O   UNL     1      -4.199   0.524 -26.645  1.00  0.00    -0.507 OA
ATOM     14  H   UNL     1      -3.408   0.899 -26.220  1.00  0.00     0.293 HD
ENDBRANCH   2  13
BRANCH   5  15
ATOM     15  O   UNL     1      -3.032  -0.974 -31.808  1.00  0.00    -0.508 OA
ATOM     16  H   UNL     1      -2.128  -1.330 -31.840  1.00  0.00     0.293 HD
ENDBRANCH   5  15
TORSDOF 3
ENDMDL
MODEL 6
REMARK VINA RESULT:      -6.3     21.952     23.421
REMARK SMILES Oc1ccc(O)c(-c2ccccc2)c1
REMARK SMILES IDX 7 1 5 2 4 3 3 4 2 5 14 6 8 7 11 8 10 9 12 10 9 11 13 12 6 13
REMARK SMILES IDX 1 15
REMARK H PARENT 6 14 1 16
ROOT
ATOM      1  C   UNL     1      -8.815  -0.741 -31.305  1.00  0.00     0.027 A 
ATOM      2  C   UNL     1      -7.577  -0.224 -31.726  1.00  0.00     0.123 A 
ATOM      3  C   UNL     1      -7.498   0.907 -32.540  1.00  0.00     0.050 A 
ATOM      4  C   UNL     1      -8.663   1.543 -32.964  1.00  0.00     0.050 A 
ATOM      5  C   UNL     1      -9.895   1.037 -32.565  1.00  0.00     0.116 A 
ATOM      6  C   UNL     1      -9.978  -0.087 -31.747  1.00  0.00     0.058 A 
ENDROOT
BRANCH   1   7
ATOM      7  C   UNL     1      -8.930  -1.915 -30.429  1.00  0.00    -0.015 A 
ATOM      8  C   UNL     1      -9.131  -4.161 -28.746  1.00  0.00     0.000 A 
ATOM      9  C   UNL     1      -9.216  -2.878 -28.209  1.00  0.00     0.001 A 
ATOM     10  C   UNL     1      -8.949  -4.330 -30.117  1.00  0.00     0.001 A 
ATOM     11  C   UNL     1      -9.118  -1.764 -29.044  1.00  0.00     0.009 A 
ATOM     12  C   UNL     1      -8.851  -3.215 -30.953  1.00  0.00     0.009 A 
ENDBRANCH   1   7
BRANCH   2  13
ATOM     13  O   UNL     1      -6.380  -0.797 -31.384  1.00  0.00    -0.507 OA
ATOM     14  H   UNL     1      -5.883  -0.164 -30.837  1.00  0.00     0.293 HD
ENDBRANCH   2  13
BRANCH   5  15
ATOM     15  O   UNL     1     -11.062   1.623 -32.957  1.00  0.00    -0.508 OA
ATOM     16  H   UNL     1     -11.119   1.585 -33.926  1.00  0.00     0.293 HD
ENDBRANCH   5  15
TORSDOF 3
ENDMDL
MODEL 7
REMARK VINA RESULT:      -6.3     16.535     17.708
REMARK SMILES Oc1ccc(O)c(-c2ccccc2)c1
REMARK SMILES IDX 7 1 5 2 4 3 3 4 2 5 14 6 8 7 11 8 10 9 12 10 9 11 13 12 6 13
REMARK SMILES IDX 1 15
REMARK H PARENT 6 14 1 16
ROOT
ATOM      1  C   UNL     1      -5.482  -0.268 -26.182  1.00  0.00     0.027 A 
ATOM      2  C   UNL     1      -6.538   0.659 -26.255  1.00  0.00     0.123 A 
ATOM      3  C   UNL     1      -7.581   0.648 -25.327  1.00  0.00     0.050 A 
ATOM      4  C   UNL     1      -7.598  -0.301 -24.308  1.00  0.00     0.050 A 
ATOM      5  C   UNL     1      -6.567  -1.231 -24.229  1.00  0.00     0.116 A 
ATOM      6  C   UNL     1      -5.521  -1.219 -25.149  1.00  0.00     0.058 A 
ENDROOT
BRANCH   1   7
ATOM      7  C   UNL     1      -4.358  -0.267 -27.128  1.00  0.00    -0.015 A 
ATOM      8  C   UNL     1      -2.214  -0.252 -28.951  1.00  0.00     0.000 A 
ATOM      9  C   UNL     1      -2.312   0.744 -27.982  1.00  0.00     0.001 A 
ATOM     10  C   UNL     1      -3.178  -1.257 -29.014  1.00  0.00     0.001 A 
ATOM     11  C   UNL     1      -3.375   0.736 -27.076  1.00  0.00     0.009 A 
ATOM     12  C   UNL     1      -4.241  -1.265 -28.109  1.00  0.00     0.009 A 
ENDBRANCH   1   7
BRANCH   2  13
ATOM     13  O   UNL     1      -6.622   1.610 -27.237  1.00  0.00    -0.507 OA
ATOM     14  H   UNL     1      -7.173   2.342 -26.907  1.00  0.00     0.293 HD
ENDBRANCH   2  13
BRANCH   5  15
ATOM     15  O   UNL     1      -6.541  -2.181 -23.252  1.00  0.00    -0.508 OA
ATOM     16  H   UNL     1      -6.892  -3.011 -23.616  1.00  0.00     0.293 HD
ENDBRANCH   5  15
TORSDOF 3
ENDMDL
MODEL 8
REMARK VINA RESULT:      -6.3     19.844     22.931
REMARK SMILES Oc1ccc(O)c(-c2ccccc2)c1
REMARK SMILES IDX 7 1 5 2 4 3 3 4 2 5 14 6 8 7 11 8 10 9 12 10 9 11 13 12 6 13
REMARK SMILES IDX 1 15
REMARK H PARENT 6 14 1 16
ROOT
ATOM      1  C   UNL     1      -7.984   1.186 -31.438  1.00  0.00     0.027 A 
ATOM      2  C   UNL     1      -7.798  -0.160 -31.800  1.00  0.00     0.123 A 
ATOM      3  C   UNL     1      -8.723  -0.832 -32.602  1.00  0.00     0.050 A 
ATOM      4  C   UNL     1      -9.865  -0.174 -33.052  1.00  0.00     0.050 A 
ATOM      5  C   UNL     1     -10.068   1.154 -32.693  1.00  0.00     0.116 A 
ATOM      6  C   UNL     1      -9.145   1.831 -31.898  1.00  0.00     0.058 A 
ENDROOT
BRANCH   1   7
ATOM      7  C   UNL     1      -7.018   1.929 -30.616  1.00  0.00    -0.015 A 
ATOM      8  C   UNL     1      -5.181   3.366 -29.043  1.00  0.00     0.000 A 
ATOM      9  C   UNL     1      -6.286   2.763 -28.446  1.00  0.00     0.001 A 
ATOM     10  C   UNL     1      -4.985   3.253 -30.418  1.00  0.00     0.001 A 
ATOM     11  C   UNL     1      -7.197   2.048 -29.227  1.00  0.00     0.009 A 
ATOM     12  C   UNL     1      -5.896   2.539 -31.199  1.00  0.00     0.009 A 
ENDBRANCH   1   7
BRANCH   2  13
ATOM     13  O   UNL     1      -6.722  -0.897 -31.384  1.00  0.00    -0.507 OA
ATOM     14  H   UNL     1      -6.739  -1.753 -31.848  1.00  0.00     0.293 HD
ENDBRANCH   2  13
BRANCH   5  15
ATOM     15  O   UNL     1     -11.171   1.840 -33.106  1.00  0.00    -0.508 OA
ATOM     16  H   UNL     1     -11.268   1.723 -34.066  1.00  0.00     0.293 HD
ENDBRANCH   5  15
TORSDOF 3
ENDMDL
MODEL 9
REMARK VINA RESULT:      -6.2     17.283     18.375
REMARK SMILES Oc1ccc(O)c(-c2ccccc2)c1
REMARK SMILES IDX 7 1 5 2 4 3 3 4 2 5 14 6 8 7 11 8 10 9 12 10 9 11 13 12 6 13
REMARK SMILES IDX 1 15
REMARK H PARENT 6 14 1 16
ROOT
ATOM      1  C   UNL     1      -3.799   0.937 -28.789  1.00  0.00     0.027 A 
ATOM      2  C   UNL     1      -3.243   0.008 -29.687  1.00  0.00     0.123 A 
ATOM      3  C   UNL     1      -3.275  -1.364 -29.428  1.00  0.00     0.050 A 
ATOM      4  C   UNL     1      -3.856  -1.839 -28.255  1.00  0.00     0.050 A 
ATOM      5  C   UNL     1      -4.399  -0.932 -27.352  1.00  0.00     0.116 A 
ATOM      6  C   UNL     1      -4.376   0.437 -27.610  1.00  0.00     0.058 A 
ENDROOT
BRANCH   1   7
ATOM      7  C   UNL     1      -3.803   2.384 -29.045  1.00  0.00    -0.015 A 
ATOM      8  C   UNL     1      -3.824   5.157 -29.518  1.00  0.00     0.000 A 
ATOM      9  C   UNL     1      -2.994   4.625 -28.534  1.00  0.00     0.001 A 
ATOM     10  C   UNL     1      -4.641   4.315 -30.269  1.00  0.00     0.001 A 
ATOM     11  C   UNL     1      -2.982   3.248 -28.300  1.00  0.00     0.009 A 
ATOM     12  C   UNL     1      -4.630   2.938 -30.035  1.00  0.00     0.009 A 
ENDBRANCH   1   7
BRANCH   2  13
ATOM     13  O   UNL     1      -2.626   0.381 -30.852  1.00  0.00    -0.507 OA
ATOM     14  H   UNL     1      -1.976  -0.304 -31.088  1.00  0.00     0.293 HD
ENDBRANCH   2  13
BRANCH   5  15
ATOM     15  O   UNL     1      -4.976  -1.348 -26.189  1.00  0.00    -0.508 OA
ATOM     16  H   UNL     1      -4.498  -0.946 -25.444  1.00  0.00     0.293 HD
ENDBRANCH   5  15
TORSDOF 3
ENDMDL
MODEL 10
REMARK VINA RESULT:      -6.1     16.595     19.714
REMARK SMILES Oc1ccc(O)c(-c2ccccc2)c1
REMARK SMILES IDX 7 1 5 2 4 3 3 4 2 5 14 6 8 7 11 8 10 9 12 10 9 11 13 12 6 13
REMARK SMILES IDX 1 15
REMARK H PARENT 6 14 1 16
ROOT
ATOM      1  C   UNL     1      -5.512  -1.133 -29.261  1.00  0.00     0.027 A 
ATOM      2  C   UNL     1      -6.058  -2.218 -28.551  1.00  0.00     0.123 A 
ATOM      3  C   UNL     1      -7.220  -2.860 -28.983  1.00  0.00     0.050 A 
ATOM      4  C   UNL     1      -7.872  -2.422 -30.134  1.00  0.00     0.050 A 
ATOM      5  C   UNL     1      -7.351  -1.343 -30.839  1.00  0.00     0.116 A 
ATOM      6  C   UNL     1      -6.188  -0.704 -30.416  1.00  0.00     0.058 A 
ENDROOT
BRANCH   1   7
ATOM      7  C   UNL     1      -4.278  -0.452 -28.845  1.00  0.00    -0.015 A 
ATOM      8  C   UNL     1      -1.921   0.868 -28.059  1.00  0.00     0.000 A 
ATOM      9  C   UNL     1      -3.062   0.946 -27.263  1.00  0.00     0.001 A 
ATOM     10  C   UNL     1      -1.948   0.133 -29.242  1.00  0.00     0.001 A 
ATOM     11  C   UNL     1      -4.231   0.289 -27.653  1.00  0.00     0.009 A 
ATOM     12  C   UNL     1      -3.117  -0.523 -29.633  1.00  0.00     0.009 A 
ENDBRANCH   1   7
BRANCH   2  13
ATOM     13  O   UNL     1      -5.504  -2.701 -27.395  1.00  0.00    -0.507 OA
ATOM     14  H   UNL     1      -4.743  -2.140 -27.163  1.00  0.00     0.293 HD
ENDBRANCH   2  13
BRANCH   5  15
ATOM     15  O   UNL     1      -7.955  -0.876 -31.969  1.00  0.00    -0.508 OA
ATOM     16  H   UNL     1      -8.105   0.079 -31.869  1.00  0.00     0.293 HD
ENDBRANCH   5  15
TORSDOF 3
ENDMDL
