MODEL 1
REMARK VINA RESULT:      -6.1      0.000      0.000
REMARK SMILES C1=CC[C@@H]2CCCC2=C1
REMARK SMILES IDX 6 1 5 2 4 3 3 4 2 5 1 6 9 7 8 8 7 9
REMARK H PARENT
ROOT
ATOM      1  C   UNL     1       6.081  -3.298 -19.717  1.00  0.00     0.005 C 
ATOM      2  C   UNL     1       5.996  -3.182 -18.195  1.00  0.00     0.008 C 
ATOM      3  C   UNL     1       6.216  -1.694 -17.952  1.00  0.00     0.019 C 
ATOM      4  C   UNL     1       6.635  -1.319 -16.523  1.00  0.00     0.035 C 
ATOM      5  C   UNL     1       7.473  -0.064 -16.490  1.00  0.00    -0.026 C 
ATOM      6  C   UNL     1       8.159   0.361 -17.564  1.00  0.00    -0.004 C 
ATOM      7  C   UNL     1       8.171  -0.404 -18.793  1.00  0.00    -0.001 C 
ATOM      8  C   UNL     1       7.259  -1.366 -18.991  1.00  0.00    -0.067 C 
ATOM      9  C   UNL     1       7.201  -2.340 -20.129  1.00  0.00     0.031 C 
ENDROOT
TORSDOF 0
ENDMDL
MODEL 2
REMARK VINA RESULT:      -5.8      0.542      3.758
REMARK SMILES C1=CC[C@@H]2CCCC2=C1
REMARK SMILES IDX 6 1 5 2 4 3 3 4 2 5 1 6 9 7 8 8 7 9
REMARK H PARENT
ROOT
ATOM      1  C   UNL     1       7.883   0.593 -17.339  1.00  0.00     0.005 C 
ATOM      2  C   UNL     1       8.276  -0.133 -18.626  1.00  0.00     0.008 C 
ATOM      3  C   UNL     1       7.042  -0.972 -18.935  1.00  0.00     0.019 C 
ATOM      4  C   UNL     1       7.275  -2.144 -19.900  1.00  0.00     0.035 C 
ATOM      5  C   UNL     1       6.315  -3.283 -19.648  1.00  0.00    -0.026 C 
ATOM      6  C   UNL     1       5.708  -3.451 -18.461  1.00  0.00    -0.004 C 
ATOM      7  C   UNL     1       5.993  -2.574 -17.346  1.00  0.00    -0.001 C 
ATOM      8  C   UNL     1       6.612  -1.403 -17.556  1.00  0.00    -0.067 C 
ATOM      9  C   UNL     1       7.105  -0.439 -16.519  1.00  0.00     0.031 C 
ENDROOT
TORSDOF 0
ENDMDL
MODEL 3
REMARK VINA RESULT:      -5.7     13.638     15.370
REMARK SMILES C1=CC[C@@H]2CCCC2=C1
REMARK SMILES IDX 6 1 5 2 4 3 3 4 2 5 1 6 9 7 8 8 7 9
REMARK H PARENT
ROOT
ATOM      1  C   UNL     1      -4.346  -9.292 -27.625  1.00  0.00     0.005 C 
ATOM      2  C   UNL     1      -3.288  -8.373 -27.013  1.00  0.00     0.008 C 
ATOM      3  C   UNL     1      -1.985  -8.937 -27.565  1.00  0.00     0.019 C 
ATOM      4  C   UNL     1      -0.719  -8.529 -26.796  1.00  0.00     0.035 C 
ATOM      5  C   UNL     1       0.367  -9.573 -26.899  1.00  0.00    -0.026 C 
ATOM      6  C   UNL     1       0.093 -10.857 -27.182  1.00  0.00    -0.004 C 
ATOM      7  C   UNL     1      -1.272 -11.311 -27.346  1.00  0.00    -0.001 C 
ATOM      8  C   UNL     1      -2.256 -10.420 -27.535  1.00  0.00    -0.067 C 
ATOM      9  C   UNL     1      -3.729 -10.693 -27.587  1.00  0.00     0.031 C 
ENDROOT
TORSDOF 0
ENDMDL
MODEL 4
REMARK VINA RESULT:      -5.6     13.658     14.479
REMARK SMILES C1=CC[C@@H]2CCCC2=C1
REMARK SMILES IDX 6 1 5 2 4 3 3 4 2 5 1 6 9 7 8 8 7 9
REMARK H PARENT
ROOT
ATOM      1  C   UNL     1      -5.514  -1.377 -26.070  1.00  0.00     0.005 C 
ATOM      2  C   UNL     1      -4.503  -0.263 -25.801  1.00  0.00     0.008 C 
ATOM      3  C   UNL     1      -4.084   0.164 -27.203  1.00  0.00     0.019 C 
ATOM      4  C   UNL     1      -2.762   0.942 -27.281  1.00  0.00     0.035 C 
ATOM      5  C   UNL     1      -2.064   0.740 -28.605  1.00  0.00    -0.026 C 
ATOM      6  C   UNL     1      -2.301  -0.335 -29.376  1.00  0.00    -0.004 C 
ATOM      7  C   UNL     1      -3.200  -1.383 -28.941  1.00  0.00    -0.001 C 
ATOM      8  C   UNL     1      -4.048  -1.159 -27.927  1.00  0.00    -0.067 C 
ATOM      9  C   UNL     1      -4.946  -2.156 -27.259  1.00  0.00     0.031 C 
ENDROOT
TORSDOF 0
ENDMDL
MODEL 5
REMARK VINA RESULT:      -5.4     13.895     14.642
REMARK SMILES C1=CC[C@@H]2CCCC2=C1
REMARK SMILES IDX 6 1 5 2 4 3 3 4 2 5 1 6 9 7 8 8 7 9
REMARK H PARENT
ROOT
ATOM      1  C   UNL     1      -5.511  -1.584 -26.303  1.00  0.00     0.005 C 
ATOM      2  C   UNL     1      -5.214  -1.897 -27.770  1.00  0.00     0.008 C 
ATOM      3  C   UNL     1      -3.782  -1.407 -27.941  1.00  0.00     0.019 C 
ATOM      4  C   UNL     1      -3.343  -1.165 -29.393  1.00  0.00     0.035 C 
ATOM      5  C   UNL     1      -2.282  -0.095 -29.492  1.00  0.00    -0.026 C 
ATOM      6  C   UNL     1      -2.122   0.838 -28.538  1.00  0.00    -0.004 C 
ATOM      7  C   UNL     1      -3.004   0.892 -27.392  1.00  0.00    -0.001 C 
ATOM      8  C   UNL     1      -3.782  -0.159 -27.095  1.00  0.00    -0.067 C 
ATOM      9  C   UNL     1      -4.844  -0.231 -26.040  1.00  0.00     0.031 C 
ENDROOT
TORSDOF 0
ENDMDL
MODEL 6
REMARK VINA RESULT:      -5.3     13.695     14.537
REMARK SMILES C1=CC[C@@H]2CCCC2=C1
REMARK SMILES IDX 6 1 5 2 4 3 3 4 2 5 1 6 9 7 8 8 7 9
REMARK H PARENT
ROOT
ATOM      1  C   UNL     1      -2.276  -0.062 -29.553  1.00  0.00     0.005 C 
ATOM      2  C   UNL     1      -3.011  -1.372 -29.268  1.00  0.00     0.008 C 
ATOM      3  C   UNL     1      -4.139  -0.937 -28.341  1.00  0.00     0.019 C 
ATOM      4  C   UNL     1      -4.782  -2.064 -27.520  1.00  0.00     0.035 C 
ATOM      5  C   UNL     1      -5.338  -1.563 -26.209  1.00  0.00    -0.026 C 
ATOM      6  C   UNL     1      -4.893  -0.433 -25.634  1.00  0.00    -0.004 C 
ATOM      7  C   UNL     1      -3.813   0.329 -26.224  1.00  0.00    -0.001 C 
ATOM      8  C   UNL     1      -3.454   0.108 -27.497  1.00  0.00    -0.067 C 
ATOM      9  C   UNL     1      -2.285   0.698 -28.224  1.00  0.00     0.031 C 
ENDROOT
TORSDOF 0
ENDMDL
MODEL 7
REMARK VINA RESULT:      -5.3     13.518     15.326
REMARK SMILES C1=CC[C@@H]2CCCC2=C1
REMARK SMILES IDX 6 1 5 2 4 3 3 4 2 5 1 6 9 7 8 8 7 9
REMARK H PARENT
ROOT
ATOM      1  C   UNL     1       0.671  -9.702 -26.698  1.00  0.00     0.005 C 
ATOM      2  C   UNL     1      -0.177  -8.535 -27.203  1.00  0.00     0.008 C 
ATOM      3  C   UNL     1      -1.586  -8.928 -26.778  1.00  0.00     0.019 C 
ATOM      4  C   UNL     1      -2.719  -8.201 -27.518  1.00  0.00     0.035 C 
ATOM      5  C   UNL     1      -3.972  -9.039 -27.600  1.00  0.00    -0.026 C 
ATOM      6  C   UNL     1      -3.938 -10.379 -27.498  1.00  0.00    -0.004 C 
ATOM      7  C   UNL     1      -2.682 -11.086 -27.359  1.00  0.00    -0.001 C 
ATOM      8  C   UNL     1      -1.572 -10.418 -27.014  1.00  0.00    -0.067 C 
ATOM      9  C   UNL     1      -0.173 -10.952 -26.957  1.00  0.00     0.031 C 
ENDROOT
TORSDOF 0
ENDMDL
MODEL 8
REMARK VINA RESULT:      -5.3     13.673     15.238
REMARK SMILES C1=CC[C@@H]2CCCC2=C1
REMARK SMILES IDX 6 1 5 2 4 3 3 4 2 5 1 6 9 7 8 8 7 9
REMARK H PARENT
ROOT
ATOM      1  C   UNL     1      -4.372  -9.158 -27.188  1.00  0.00     0.005 C 
ATOM      2  C   UNL     1      -3.667 -10.385 -27.767  1.00  0.00     0.008 C 
ATOM      3  C   UNL     1      -2.340 -10.401 -27.019  1.00  0.00     0.019 C 
ATOM      4  C   UNL     1      -1.228 -11.230 -27.677  1.00  0.00     0.035 C 
ATOM      5  C   UNL     1       0.146 -10.697 -27.349  1.00  0.00    -0.026 C 
ATOM      6  C   UNL     1       0.342  -9.423 -26.971  1.00  0.00    -0.004 C 
ATOM      7  C   UNL     1      -0.757  -8.483 -26.916  1.00  0.00    -0.001 C 
ATOM      8  C   UNL     1      -2.021  -8.929 -26.930  1.00  0.00    -0.067 C 
ATOM      9  C   UNL     1      -3.272  -8.108 -27.016  1.00  0.00     0.031 C 
ENDROOT
TORSDOF 0
ENDMDL
MODEL 9
REMARK VINA RESULT:      -5.2     13.652     15.283
REMARK SMILES C1=CC[C@@H]2CCCC2=C1
REMARK SMILES IDX 6 1 5 2 4 3 3 4 2 5 1 6 9 7 8 8 7 9
REMARK H PARENT
ROOT
ATOM      1  C   UNL     1      -1.891   0.851 -27.984  1.00  0.00     0.005 C 
ATOM      2  C   UNL     1      -3.225   0.733 -27.248  1.00  0.00     0.008 C 
ATOM      3  C   UNL     1      -3.718  -0.650 -27.653  1.00  0.00     0.019 C 
ATOM      4  C   UNL     1      -5.221  -0.894 -27.451  1.00  0.00     0.035 C 
ATOM      5  C   UNL     1      -5.769  -1.900 -28.434  1.00  0.00    -0.026 C 
ATOM      6  C   UNL     1      -5.162  -2.151 -29.607  1.00  0.00    -0.004 C 
ATOM      7  C   UNL     1      -3.978  -1.420 -30.005  1.00  0.00    -0.001 C 
ATOM      8  C   UNL     1      -3.286  -0.718 -29.097  1.00  0.00    -0.067 C 
ATOM      9  C   UNL     1      -2.128   0.199 -29.349  1.00  0.00     0.031 C 
ENDROOT
TORSDOF 0
ENDMDL
MODEL 10
REMARK VINA RESULT:      -5.2     14.047     14.934
REMARK SMILES C1=CC[C@@H]2CCCC2=C1
REMARK SMILES IDX 6 1 5 2 4 3 3 4 2 5 1 6 9 7 8 8 7 9
REMARK H PARENT
ROOT
ATOM      1  C   UNL     1      -2.489  -0.231 -30.449  1.00  0.00     0.005 C 
ATOM      2  C   UNL     1      -2.755   0.747 -29.304  1.00  0.00     0.008 C 
ATOM      3  C   UNL     1      -2.998  -0.175 -28.117  1.00  0.00     0.019 C 
ATOM      4  C   UNL     1      -3.728   0.468 -26.929  1.00  0.00     0.035 C 
ATOM      5  C   UNL     1      -4.530  -0.542 -26.142  1.00  0.00    -0.026 C 
ATOM      6  C   UNL     1      -4.943  -1.699 -26.686  1.00  0.00    -0.004 C 
ATOM      7  C   UNL     1      -4.684  -2.005 -28.077  1.00  0.00    -0.001 C 
ATOM      8  C   UNL     1      -3.768  -1.303 -28.758  1.00  0.00    -0.067 C 
ATOM      9  C   UNL     1      -3.467  -1.386 -30.224  1.00  0.00     0.031 C 
ENDROOT
TORSDOF 0
ENDMDL
