MODEL 1
REMARK VINA RESULT:      -8.2      0.000      0.000
REMARK SMILES COc1ccc(-c2cc(=O)c3c(O)cc(O)cc3o2)cc1O
REMARK SMILES IDX 7 1 8 2 9 3 10 4 11 5 12 6 14 7 15 8 17 9 18 10 19 11 6 12
REMARK SMILES IDX 3 13 21 14 4 15 20 16 5 17 2 18 1 19 22 20 13 22 16 24
REMARK H PARENT 22 21 13 23 16 25
ROOT
ATOM      1  C   UNL     1      -5.756   1.772 -30.373  1.00  0.00     0.138 A 
ATOM      2  C   UNL     1      -5.487   0.464 -30.245  1.00  0.00     0.100 A 
ATOM      3  C   UNL     1      -6.460  -0.516 -30.745  1.00  0.00     0.197 A 
ATOM      4  O   UNL     1      -6.257  -1.724 -30.667  1.00  0.00    -0.289 OA
ATOM      5  C   UNL     1      -7.691   0.010 -31.347  1.00  0.00     0.107 A 
ATOM      6  C   UNL     1      -8.685  -0.837 -31.848  1.00  0.00     0.134 A 
ATOM      7  C   UNL     1      -9.842  -0.305 -32.411  1.00  0.00     0.093 A 
ATOM      8  C   UNL     1      -9.994   1.079 -32.469  1.00  0.00     0.123 A 
ATOM      9  C   UNL     1      -9.011   1.931 -31.974  1.00  0.00     0.094 A 
ATOM     10  C   UNL     1      -7.854   1.392 -31.411  1.00  0.00     0.146 A 
ATOM     11  O   UNL     1      -6.918   2.276 -30.938  1.00  0.00    -0.456 OA
ENDROOT
BRANCH   1  12
ATOM     12  C   UNL     1      -4.825   2.807 -29.881  1.00  0.00     0.021 A 
ATOM     13  C   UNL     1      -3.032   4.795 -28.972  1.00  0.00     0.160 A 
ATOM     14  C   UNL     1      -3.864   5.016 -30.074  1.00  0.00     0.158 A 
ATOM     15  C   UNL     1      -3.095   3.564 -28.327  1.00  0.00     0.051 A 
ATOM     16  C   UNL     1      -4.748   4.043 -30.533  1.00  0.00     0.062 A 
ATOM     17  C   UNL     1      -3.982   2.577 -28.780  1.00  0.00     0.016 A 
BRANCH  13  18
ATOM     18  O   UNL     1      -2.218   5.847 -28.640  1.00  0.00    -0.493 OA
ATOM     19  C   UNL     1      -2.111   6.157 -27.256  1.00  0.00     0.278 C 
ENDBRANCH  13  18
BRANCH  14  20
ATOM     20  O   UNL     1      -3.826   6.213 -30.736  1.00  0.00    -0.504 OA
ATOM     21  H   UNL     1      -4.171   6.019 -31.629  1.00  0.00     0.293 HD
ENDBRANCH  14  20
ENDBRANCH   1  12
BRANCH   6  22
ATOM     22  O   UNL     1      -8.586  -2.203 -31.818  1.00  0.00    -0.507 OA
ATOM     23  H   UNL     1      -8.732  -2.500 -30.891  1.00  0.00     0.293 HD
ENDBRANCH   6  22
BRANCH   8  24
ATOM     24  O   UNL     1     -11.110   1.647 -33.010  1.00  0.00    -0.508 OA
ATOM     25  H   UNL     1     -11.853   1.527 -32.395  1.00  0.00     0.293 HD
ENDBRANCH   8  24
TORSDOF 5
ENDMDL
MODEL 2
REMARK VINA RESULT:      -8.1      3.861      8.739
REMARK SMILES COc1ccc(-c2cc(=O)c3c(O)cc(O)cc3o2)cc1O
REMARK SMILES IDX 7 1 8 2 9 3 10 4 11 5 12 6 14 7 15 8 17 9 18 10 19 11 6 12
REMARK SMILES IDX 3 13 21 14 4 15 20 16 5 17 2 18 1 19 22 20 13 22 16 24
REMARK H PARENT 22 21 13 23 16 25
ROOT
ATOM      1  C   UNL     1      -8.043  -2.392 -30.076  1.00  0.00     0.138 A 
ATOM      2  C   UNL     1      -8.384  -1.589 -31.095  1.00  0.00     0.100 A 
ATOM      3  C   UNL     1      -7.399  -0.625 -31.603  1.00  0.00     0.197 A 
ATOM      4  O   UNL     1      -7.654   0.123 -32.542  1.00  0.00    -0.289 OA
ATOM      5  C   UNL     1      -6.090  -0.592 -30.940  1.00  0.00     0.107 A 
ATOM      6  C   UNL     1      -5.084   0.293 -31.342  1.00  0.00     0.134 A 
ATOM      7  C   UNL     1      -3.854   0.299 -30.689  1.00  0.00     0.093 A 
ATOM      8  C   UNL     1      -3.640  -0.587 -29.635  1.00  0.00     0.123 A 
ATOM      9  C   UNL     1      -4.635  -1.472 -29.228  1.00  0.00     0.094 A 
ATOM     10  C   UNL     1      -5.865  -1.473 -29.885  1.00  0.00     0.146 A 
ATOM     11  O   UNL     1      -6.809  -2.365 -29.443  1.00  0.00    -0.456 OA
ENDROOT
BRANCH   1  12
ATOM     12  C   UNL     1      -8.990  -3.374 -29.512  1.00  0.00     0.021 A 
ATOM     13  C   UNL     1     -10.827  -5.246 -28.457  1.00  0.00     0.160 A 
ATOM     14  C   UNL     1     -10.634  -5.116 -29.835  1.00  0.00     0.158 A 
ATOM     15  C   UNL     1     -10.098  -4.425 -27.601  1.00  0.00     0.051 A 
ATOM     16  C   UNL     1      -9.735  -4.195 -30.367  1.00  0.00     0.062 A 
ATOM     17  C   UNL     1      -9.189  -3.495 -28.126  1.00  0.00     0.016 A 
BRANCH  13  18
ATOM     18  O   UNL     1     -11.744  -6.195 -28.087  1.00  0.00    -0.493 OA
ATOM     19  C   UNL     1     -12.480  -5.939 -26.896  1.00  0.00     0.278 C 
ENDBRANCH  13  18
BRANCH  14  20
ATOM     20  O   UNL     1     -11.338  -5.903 -30.706  1.00  0.00    -0.504 OA
ATOM     21  H   UNL     1     -11.511  -5.332 -31.480  1.00  0.00     0.293 HD
ENDBRANCH  14  20
ENDBRANCH   1  12
BRANCH   6  22
ATOM     22  O   UNL     1      -5.240   1.182 -32.371  1.00  0.00    -0.507 OA
ATOM     23  H   UNL     1      -5.246   2.091 -31.993  1.00  0.00     0.293 HD
ENDBRANCH   6  22
BRANCH   8  24
ATOM     24  O   UNL     1      -2.453  -0.617 -28.965  1.00  0.00    -0.508 OA
ATOM     25  H   UNL     1      -1.870  -1.269 -29.387  1.00  0.00     0.293 HD
ENDBRANCH   8  24
TORSDOF 5
ENDMDL
MODEL 3
REMARK VINA RESULT:      -8.1      4.945      6.591
REMARK SMILES COc1ccc(-c2cc(=O)c3c(O)cc(O)cc3o2)cc1O
REMARK SMILES IDX 7 1 8 2 9 3 10 4 11 5 12 6 14 7 15 8 17 9 18 10 19 11 6 12
REMARK SMILES IDX 3 13 21 14 4 15 20 16 5 17 2 18 1 19 22 20 13 22 16 24
REMARK H PARENT 22 21 13 23 16 25
ROOT
ATOM      1  C   UNL     1      -8.079  -3.150 -28.462  1.00  0.00     0.138 A 
ATOM      2  C   UNL     1      -8.377  -4.302 -29.082  1.00  0.00     0.100 A 
ATOM      3  C   UNL     1      -9.615  -5.005 -28.724  1.00  0.00     0.197 A 
ATOM      4  O   UNL     1      -9.942  -6.054 -29.270  1.00  0.00    -0.289 OA
ATOM      5  C   UNL     1     -10.452  -4.399 -27.681  1.00  0.00     0.107 A 
ATOM      6  C   UNL     1     -11.648  -4.991 -27.261  1.00  0.00     0.134 A 
ATOM      7  C   UNL     1     -12.417  -4.390 -26.267  1.00  0.00     0.093 A 
ATOM      8  C   UNL     1     -11.979  -3.195 -25.701  1.00  0.00     0.123 A 
ATOM      9  C   UNL     1     -10.791  -2.597 -26.111  1.00  0.00     0.094 A 
ATOM     10  C   UNL     1     -10.025  -3.204 -27.107  1.00  0.00     0.146 A 
ATOM     11  O   UNL     1      -8.863  -2.573 -27.474  1.00  0.00    -0.456 OA
ENDROOT
BRANCH   1  12
ATOM     12  C   UNL     1      -6.844  -2.401 -28.768  1.00  0.00     0.021 A 
ATOM     13  C   UNL     1      -4.481  -0.978 -29.387  1.00  0.00     0.160 A 
ATOM     14  C   UNL     1      -5.568  -0.998 -30.266  1.00  0.00     0.158 A 
ATOM     15  C   UNL     1      -4.578  -1.684 -28.191  1.00  0.00     0.051 A 
ATOM     16  C   UNL     1      -6.735  -1.698 -29.974  1.00  0.00     0.062 A 
ATOM     17  C   UNL     1      -5.750  -2.392 -27.887  1.00  0.00     0.016 A 
BRANCH  13  18
ATOM     18  O   UNL     1      -3.404  -0.246 -29.813  1.00  0.00    -0.493 OA
ATOM     19  C   UNL     1      -2.357  -0.045 -28.870  1.00  0.00     0.278 C 
ENDBRANCH  13  18
BRANCH  14  20
ATOM     20  O   UNL     1      -5.506  -0.319 -31.452  1.00  0.00    -0.504 OA
ATOM     21  H   UNL     1      -6.003   0.508 -31.296  1.00  0.00     0.293 HD
ENDBRANCH  14  20
ENDBRANCH   1  12
BRANCH   6  22
ATOM     22  O   UNL     1     -12.125  -6.162 -27.785  1.00  0.00    -0.507 OA
ATOM     23  H   UNL     1     -11.818  -6.228 -28.719  1.00  0.00     0.293 HD
ENDBRANCH   6  22
BRANCH   8  24
ATOM     24  O   UNL     1     -12.697  -2.570 -24.724  1.00  0.00    -0.508 OA
ATOM     25  H   UNL     1     -13.491  -3.096 -24.532  1.00  0.00     0.293 HD
ENDBRANCH   8  24
TORSDOF 5
ENDMDL
MODEL 4
REMARK VINA RESULT:      -8.0      5.081      6.572
REMARK SMILES COc1ccc(-c2cc(=O)c3c(O)cc(O)cc3o2)cc1O
REMARK SMILES IDX 7 1 8 2 9 3 10 4 11 5 12 6 14 7 15 8 17 9 18 10 19 11 6 12
REMARK SMILES IDX 3 13 21 14 4 15 20 16 5 17 2 18 1 19 22 20 13 22 16 24
REMARK H PARENT 22 21 13 23 16 25
ROOT
ATOM      1  C   UNL     1      -8.231  -2.959 -28.285  1.00  0.00     0.138 A 
ATOM      2  C   UNL     1      -8.397  -4.141 -28.899  1.00  0.00     0.100 A 
ATOM      3  C   UNL     1      -9.594  -4.937 -28.599  1.00  0.00     0.197 A 
ATOM      4  O   UNL     1      -9.802  -6.018 -29.143  1.00  0.00    -0.289 OA
ATOM      5  C   UNL     1     -10.538  -4.386 -27.620  1.00  0.00     0.107 A 
ATOM      6  C   UNL     1     -11.706  -5.067 -27.260  1.00  0.00     0.134 A 
ATOM      7  C   UNL     1     -12.579  -4.516 -26.325  1.00  0.00     0.093 A 
ATOM      8  C   UNL     1     -12.275  -3.280 -25.758  1.00  0.00     0.123 A 
ATOM      9  C   UNL     1     -11.116  -2.594 -26.110  1.00  0.00     0.094 A 
ATOM     10  C   UNL     1     -10.245  -3.151 -27.047  1.00  0.00     0.146 A 
ATOM     11  O   UNL     1      -9.118  -2.433 -27.357  1.00  0.00    -0.456 OA
ENDROOT
BRANCH   1  12
ATOM     12  C   UNL     1      -7.045  -2.116 -28.533  1.00  0.00     0.021 A 
ATOM     13  C   UNL     1      -4.792  -0.473 -29.001  1.00  0.00     0.160 A 
ATOM     14  C   UNL     1      -5.628  -0.263 -27.901  1.00  0.00     0.158 A 
ATOM     15  C   UNL     1      -5.094  -1.511 -29.879  1.00  0.00     0.051 A 
ATOM     16  C   UNL     1      -6.742  -1.063 -27.662  1.00  0.00     0.062 A 
ATOM     17  C   UNL     1      -6.213  -2.323 -29.647  1.00  0.00     0.016 A 
BRANCH  13  18
ATOM     18  O   UNL     1      -3.736   0.394 -29.102  1.00  0.00    -0.493 OA
ATOM     19  C   UNL     1      -2.440  -0.152 -28.887  1.00  0.00     0.278 C 
ENDBRANCH  13  18
BRANCH  14  20
ATOM     20  O   UNL     1      -5.364   0.751 -27.020  1.00  0.00    -0.504 OA
ATOM     21  H   UNL     1      -5.106   0.304 -26.191  1.00  0.00     0.293 HD
ENDBRANCH  14  20
ENDBRANCH   1  12
BRANCH   6  22
ATOM     22  O   UNL     1     -12.053  -6.282 -27.787  1.00  0.00    -0.507 OA
ATOM     23  H   UNL     1     -12.578  -6.122 -28.605  1.00  0.00     0.293 HD
ENDBRANCH   6  22
BRANCH   8  24
ATOM     24  O   UNL     1     -13.098  -2.701 -24.838  1.00  0.00    -0.508 OA
ATOM     25  H   UNL     1     -12.768  -2.907 -23.947  1.00  0.00     0.293 HD
ENDBRANCH   8  24
TORSDOF 5
ENDMDL
MODEL 5
REMARK VINA RESULT:      -8.0      4.309      7.984
REMARK SMILES COc1ccc(-c2cc(=O)c3c(O)cc(O)cc3o2)cc1O
REMARK SMILES IDX 7 1 8 2 9 3 10 4 11 5 12 6 14 7 15 8 17 9 18 10 19 11 6 12
REMARK SMILES IDX 3 13 21 14 4 15 20 16 5 17 2 18 1 19 22 20 13 22 16 24
REMARK H PARENT 22 21 13 23 16 25
ROOT
ATOM      1  C   UNL     1      -8.882  -2.015 -29.425  1.00  0.00     0.138 A 
ATOM      2  C   UNL     1      -7.565  -1.981 -29.680  1.00  0.00     0.100 A 
ATOM      3  C   UNL     1      -7.056  -1.031 -30.678  1.00  0.00     0.197 A 
ATOM      4  O   UNL     1      -5.860  -0.948 -30.938  1.00  0.00    -0.289 OA
ATOM      5  C   UNL     1      -8.041  -0.177 -31.353  1.00  0.00     0.107 A 
ATOM      6  C   UNL     1      -7.663   0.757 -32.323  1.00  0.00     0.134 A 
ATOM      7  C   UNL     1      -8.624   1.550 -32.946  1.00  0.00     0.093 A 
ATOM      8  C   UNL     1      -9.962   1.400 -32.589  1.00  0.00     0.123 A 
ATOM      9  C   UNL     1     -10.349   0.474 -31.624  1.00  0.00     0.094 A 
ATOM     10  C   UNL     1      -9.382  -0.317 -31.004  1.00  0.00     0.146 A 
ATOM     11  O   UNL     1      -9.818  -1.213 -30.061  1.00  0.00    -0.456 OA
ENDROOT
BRANCH   1  12
ATOM     12  C   UNL     1      -9.458  -2.954 -28.443  1.00  0.00     0.021 A 
ATOM     13  C   UNL     1     -10.574  -4.772 -26.587  1.00  0.00     0.160 A 
ATOM     14  C   UNL     1      -9.935  -5.219 -27.747  1.00  0.00     0.158 A 
ATOM     15  C   UNL     1     -10.661  -3.401 -26.361  1.00  0.00     0.051 A 
ATOM     16  C   UNL     1      -9.384  -4.333 -28.670  1.00  0.00     0.062 A 
ATOM     17  C   UNL     1     -10.110  -2.500 -27.283  1.00  0.00     0.016 A 
BRANCH  13  18
ATOM     18  O   UNL     1     -11.064  -5.762 -25.776  1.00  0.00    -0.493 OA
ATOM     19  C   UNL     1     -12.476  -5.807 -25.608  1.00  0.00     0.278 C 
ENDBRANCH  13  18
BRANCH  14  20
ATOM     20  O   UNL     1      -9.835  -6.560 -28.004  1.00  0.00    -0.504 OA
ATOM     21  H   UNL     1      -9.709  -6.976 -27.129  1.00  0.00     0.293 HD
ENDBRANCH  14  20
ENDBRANCH   1  12
BRANCH   6  22
ATOM     22  O   UNL     1      -6.363   0.945 -32.710  1.00  0.00    -0.507 OA
ATOM     23  H   UNL     1      -5.875   0.102 -32.566  1.00  0.00     0.293 HD
ENDBRANCH   6  22
BRANCH   8  24
ATOM     24  O   UNL     1     -10.938   2.152 -33.172  1.00  0.00    -0.508 OA
ATOM     25  H   UNL     1     -11.434   2.617 -32.477  1.00  0.00     0.293 HD
ENDBRANCH   8  24
TORSDOF 5
ENDMDL
MODEL 6
REMARK VINA RESULT:      -7.8      5.342      7.339
REMARK SMILES COc1ccc(-c2cc(=O)c3c(O)cc(O)cc3o2)cc1O
REMARK SMILES IDX 7 1 8 2 9 3 10 4 11 5 12 6 14 7 15 8 17 9 18 10 19 11 6 12
REMARK SMILES IDX 3 13 21 14 4 15 20 16 5 17 2 18 1 19 22 20 13 22 16 24
REMARK H PARENT 22 21 13 23 16 25
ROOT
ATOM      1  C   UNL     1      -8.958  -3.264 -28.581  1.00  0.00     0.138 A 
ATOM      2  C   UNL     1      -9.611  -4.233 -29.241  1.00  0.00     0.100 A 
ATOM      3  C   UNL     1     -10.700  -4.948 -28.562  1.00  0.00     0.197 A 
ATOM      4  O   UNL     1     -11.339  -5.832 -29.124  1.00  0.00    -0.289 OA
ATOM      5  C   UNL     1     -10.997  -4.559 -27.178  1.00  0.00     0.107 A 
ATOM      6  C   UNL     1     -12.010  -5.181 -26.440  1.00  0.00     0.134 A 
ATOM      7  C   UNL     1     -12.263  -4.789 -25.128  1.00  0.00     0.093 A 
ATOM      8  C   UNL     1     -11.497  -3.772 -24.564  1.00  0.00     0.123 A 
ATOM      9  C   UNL     1     -10.487  -3.146 -25.289  1.00  0.00     0.094 A 
ATOM     10  C   UNL     1     -10.238  -3.543 -26.603  1.00  0.00     0.146 A 
ATOM     11  O   UNL     1      -9.231  -2.894 -27.272  1.00  0.00    -0.456 OA
ENDROOT
BRANCH   1  12
ATOM     12  C   UNL     1      -7.847  -2.516 -29.202  1.00  0.00     0.021 A 
ATOM     13  C   UNL     1      -5.731  -1.093 -30.422  1.00  0.00     0.160 A 
ATOM     14  C   UNL     1      -7.031  -1.041 -30.934  1.00  0.00     0.158 A 
ATOM     15  C   UNL     1      -5.490  -1.872 -29.294  1.00  0.00     0.051 A 
ATOM     16  C   UNL     1      -8.080  -1.741 -30.343  1.00  0.00     0.062 A 
ATOM     17  C   UNL     1      -6.540  -2.579 -28.691  1.00  0.00     0.016 A 
BRANCH  13  18
ATOM     18  O   UNL     1      -4.807  -0.352 -31.111  1.00  0.00    -0.493 OA
ATOM     19  C   UNL     1      -4.383   0.863 -30.502  1.00  0.00     0.278 C 
ENDBRANCH  13  18
BRANCH  14  20
ATOM     20  O   UNL     1      -7.304  -0.290 -32.044  1.00  0.00    -0.504 OA
ATOM     21  H   UNL     1      -8.279  -0.249 -32.089  1.00  0.00     0.293 HD
ENDBRANCH  14  20
ENDBRANCH   1  12
BRANCH   6  22
ATOM     22  O   UNL     1     -12.793  -6.184 -26.946  1.00  0.00    -0.507 OA
ATOM     23  H   UNL     1     -12.366  -7.045 -26.729  1.00  0.00     0.293 HD
ENDBRANCH   6  22
BRANCH   8  24
ATOM     24  O   UNL     1     -11.707  -3.355 -23.283  1.00  0.00    -0.508 OA
ATOM     25  H   UNL     1     -11.319  -2.470 -23.172  1.00  0.00     0.293 HD
ENDBRANCH   8  24
TORSDOF 5
ENDMDL
MODEL 7
REMARK VINA RESULT:      -7.7      5.249      6.820
REMARK SMILES COc1ccc(-c2cc(=O)c3c(O)cc(O)cc3o2)cc1O
REMARK SMILES IDX 7 1 8 2 9 3 10 4 11 5 12 6 14 7 15 8 17 9 18 10 19 11 6 12
REMARK SMILES IDX 3 13 21 14 4 15 20 16 5 17 2 18 1 19 22 20 13 22 16 24
REMARK H PARENT 22 21 13 23 16 25
ROOT
ATOM      1  C   UNL     1      -8.597  -1.775 -27.372  1.00  0.00     0.138 A 
ATOM      2  C   UNL     1      -9.299  -0.925 -26.607  1.00  0.00     0.100 A 
ATOM      3  C   UNL     1     -10.591  -1.361 -26.058  1.00  0.00     0.197 A 
ATOM      4  O   UNL     1     -11.266  -0.629 -25.341  1.00  0.00    -0.289 OA
ATOM      5  C   UNL     1     -11.043  -2.713 -26.403  1.00  0.00     0.107 A 
ATOM      6  C   UNL     1     -12.260  -3.223 -25.938  1.00  0.00     0.134 A 
ATOM      7  C   UNL     1     -12.659  -4.511 -26.286  1.00  0.00     0.093 A 
ATOM      8  C   UNL     1     -11.832  -5.282 -27.100  1.00  0.00     0.123 A 
ATOM      9  C   UNL     1     -10.619  -4.785 -27.567  1.00  0.00     0.094 A 
ATOM     10  C   UNL     1     -10.224  -3.494 -27.215  1.00  0.00     0.146 A 
ATOM     11  O   UNL     1      -9.020  -3.054 -27.704  1.00  0.00    -0.456 OA
ENDROOT
BRANCH   1  12
ATOM     12  C   UNL     1      -7.299  -1.395 -27.962  1.00  0.00     0.021 A 
ATOM     13  C   UNL     1      -4.823  -0.635 -29.096  1.00  0.00     0.160 A 
ATOM     14  C   UNL     1      -5.464   0.168 -28.148  1.00  0.00     0.158 A 
ATOM     15  C   UNL     1      -5.433  -1.824 -29.484  1.00  0.00     0.051 A 
ATOM     16  C   UNL     1      -6.685  -0.195 -27.585  1.00  0.00     0.062 A 
ATOM     17  C   UNL     1      -6.662  -2.199 -28.923  1.00  0.00     0.016 A 
BRANCH  13  18
ATOM     18  O   UNL     1      -3.629  -0.146 -29.557  1.00  0.00    -0.493 OA
ATOM     19  C   UNL     1      -3.375  -0.293 -30.949  1.00  0.00     0.278 C 
ENDBRANCH  13  18
BRANCH  14  20
ATOM     20  O   UNL     1      -4.896   1.346 -27.746  1.00  0.00    -0.504 OA
ATOM     21  H   UNL     1      -5.580   1.784 -27.203  1.00  0.00     0.293 HD
ENDBRANCH  14  20
ENDBRANCH   1  12
BRANCH   6  22
ATOM     22  O   UNL     1     -13.109  -2.510 -25.136  1.00  0.00    -0.507 OA
ATOM     23  H   UNL     1     -13.167  -2.969 -24.266  1.00  0.00     0.293 HD
ENDBRANCH   6  22
BRANCH   8  24
ATOM     24  O   UNL     1     -12.181  -6.548 -27.468  1.00  0.00    -0.508 OA
ATOM     25  H   UNL     1     -12.426  -7.050 -26.673  1.00  0.00     0.293 HD
ENDBRANCH   8  24
TORSDOF 5
ENDMDL
MODEL 8
REMARK VINA RESULT:      -7.6      7.113      8.544
REMARK SMILES COc1ccc(-c2cc(=O)c3c(O)cc(O)cc3o2)cc1O
REMARK SMILES IDX 7 1 8 2 9 3 10 4 11 5 12 6 14 7 15 8 17 9 18 10 19 11 6 12
REMARK SMILES IDX 3 13 21 14 4 15 20 16 5 17 2 18 1 19 22 20 13 22 16 24
REMARK H PARENT 22 21 13 23 16 25
ROOT
ATOM      1  C   UNL     1      -6.997  -0.594 -24.659  1.00  0.00     0.138 A 
ATOM      2  C   UNL     1      -7.823   0.452 -24.495  1.00  0.00     0.100 A 
ATOM      3  C   UNL     1      -8.857   0.386 -23.454  1.00  0.00     0.197 A 
ATOM      4  O   UNL     1      -9.628   1.319 -23.252  1.00  0.00    -0.289 OA
ATOM      5  C   UNL     1      -8.932  -0.846 -22.660  1.00  0.00     0.107 A 
ATOM      6  C   UNL     1      -9.883  -1.014 -21.649  1.00  0.00     0.134 A 
ATOM      7  C   UNL     1      -9.927  -2.197 -20.916  1.00  0.00     0.093 A 
ATOM      8  C   UNL     1      -9.012  -3.207 -21.202  1.00  0.00     0.123 A 
ATOM      9  C   UNL     1      -8.060  -3.051 -22.206  1.00  0.00     0.094 A 
ATOM     10  C   UNL     1      -8.021  -1.863 -22.937  1.00  0.00     0.146 A 
ATOM     11  O   UNL     1      -7.064  -1.762 -23.915  1.00  0.00    -0.456 OA
ENDROOT
BRANCH   1  12
ATOM     12  C   UNL     1      -5.945  -0.595 -25.694  1.00  0.00     0.021 A 
ATOM     13  C   UNL     1      -3.933  -0.631 -27.680  1.00  0.00     0.160 A 
ATOM     14  C   UNL     1      -5.124  -1.345 -27.840  1.00  0.00     0.158 A 
ATOM     15  C   UNL     1      -3.746   0.099 -26.510  1.00  0.00     0.051 A 
ATOM     16  C   UNL     1      -6.121  -1.337 -26.868  1.00  0.00     0.062 A 
ATOM     17  C   UNL     1      -4.743   0.114 -25.524  1.00  0.00     0.016 A 
BRANCH  13  18
ATOM     18  O   UNL     1      -3.050  -0.736 -28.722  1.00  0.00    -0.493 OA
ATOM     19  C   UNL     1      -2.094   0.310 -28.855  1.00  0.00     0.278 C 
ENDBRANCH  13  18
BRANCH  14  20
ATOM     20  O   UNL     1      -5.340  -2.078 -28.976  1.00  0.00    -0.504 OA
ATOM     21  H   UNL     1      -6.296  -2.281 -28.967  1.00  0.00     0.293 HD
ENDBRANCH  14  20
ENDBRANCH   1  12
BRANCH   6  22
ATOM     22  O   UNL     1     -10.805  -0.054 -21.326  1.00  0.00    -0.507 OA
ATOM     23  H   UNL     1     -10.544   0.784 -21.773  1.00  0.00     0.293 HD
ENDBRANCH   6  22
BRANCH   8  24
ATOM     24  O   UNL     1      -9.016  -4.384 -20.513  1.00  0.00    -0.508 OA
ATOM     25  H   UNL     1      -9.825  -4.430 -19.975  1.00  0.00     0.293 HD
ENDBRANCH   8  24
TORSDOF 5
ENDMDL
MODEL 9
REMARK VINA RESULT:      -7.6      4.926      7.498
REMARK SMILES COc1ccc(-c2cc(=O)c3c(O)cc(O)cc3o2)cc1O
REMARK SMILES IDX 7 1 8 2 9 3 10 4 11 5 12 6 14 7 15 8 17 9 18 10 19 11 6 12
REMARK SMILES IDX 3 13 21 14 4 15 20 16 5 17 2 18 1 19 22 20 13 22 16 24
REMARK H PARENT 22 21 13 23 16 25
ROOT
ATOM      1  C   UNL     1      -9.478  -3.096 -29.624  1.00  0.00     0.138 A 
ATOM      2  C   UNL     1      -9.922  -4.235 -30.179  1.00  0.00     0.100 A 
ATOM      3  C   UNL     1     -10.580  -5.234 -29.326  1.00  0.00     0.197 A 
ATOM      4  O   UNL     1     -11.017  -6.285 -29.785  1.00  0.00    -0.289 OA
ATOM      5  C   UNL     1     -10.694  -4.923 -27.897  1.00  0.00     0.107 A 
ATOM      6  C   UNL     1     -11.297  -5.809 -26.997  1.00  0.00     0.134 A 
ATOM      7  C   UNL     1     -11.388  -5.484 -25.646  1.00  0.00     0.093 A 
ATOM      8  C   UNL     1     -10.873  -4.267 -25.205  1.00  0.00     0.123 A 
ATOM      9  C   UNL     1     -10.272  -3.378 -26.092  1.00  0.00     0.094 A 
ATOM     10  C   UNL     1     -10.183  -3.709 -27.444  1.00  0.00     0.146 A 
ATOM     11  O   UNL     1      -9.582  -2.797 -28.274  1.00  0.00    -0.456 OA
ENDROOT
BRANCH   1  12
ATOM     12  C   UNL     1      -8.800  -2.057 -30.423  1.00  0.00     0.021 A 
ATOM     13  C   UNL     1      -7.481  -0.058 -31.927  1.00  0.00     0.160 A 
ATOM     14  C   UNL     1      -6.776  -0.903 -31.064  1.00  0.00     0.158 A 
ATOM     15  C   UNL     1      -8.861  -0.213 -32.029  1.00  0.00     0.051 A 
ATOM     16  C   UNL     1      -7.415  -1.888 -30.316  1.00  0.00     0.062 A 
ATOM     17  C   UNL     1      -9.515  -1.203 -31.280  1.00  0.00     0.016 A 
BRANCH  13  18
ATOM     18  O   UNL     1      -6.715   0.860 -32.595  1.00  0.00    -0.493 OA
ATOM     19  C   UNL     1      -7.253   1.379 -33.806  1.00  0.00     0.278 C 
ENDBRANCH  13  18
BRANCH  14  20
ATOM     20  O   UNL     1      -5.419  -0.776 -30.935  1.00  0.00    -0.504 OA
ATOM     21  H   UNL     1      -5.045  -1.321 -31.655  1.00  0.00     0.293 HD
ENDBRANCH  14  20
ENDBRANCH   1  12
BRANCH   6  22
ATOM     22  O   UNL     1     -11.820  -7.016 -27.377  1.00  0.00    -0.507 OA
ATOM     23  H   UNL     1     -11.448  -7.248 -28.259  1.00  0.00     0.293 HD
ENDBRANCH   6  22
BRANCH   8  24
ATOM     24  O   UNL     1     -10.937  -3.905 -23.892  1.00  0.00    -0.508 OA
ATOM     25  H   UNL     1     -10.718  -2.961 -23.815  1.00  0.00     0.293 HD
ENDBRANCH   8  24
TORSDOF 5
ENDMDL
MODEL 10
REMARK VINA RESULT:      -7.5      3.236      8.343
REMARK SMILES COc1ccc(-c2cc(=O)c3c(O)cc(O)cc3o2)cc1O
REMARK SMILES IDX 7 1 8 2 9 3 10 4 11 5 12 6 14 7 15 8 17 9 18 10 19 11 6 12
REMARK SMILES IDX 3 13 21 14 4 15 20 16 5 17 2 18 1 19 22 20 13 22 16 24
REMARK H PARENT 22 21 13 23 16 25
ROOT
ATOM      1  C   UNL     1      -6.879  -0.816 -29.193  1.00  0.00     0.138 A 
ATOM      2  C   UNL     1      -7.464   0.336 -29.556  1.00  0.00     0.100 A 
ATOM      3  C   UNL     1      -6.691   1.583 -29.475  1.00  0.00     0.197 A 
ATOM      4  O   UNL     1      -7.172   2.662 -29.809  1.00  0.00    -0.289 OA
ATOM      5  C   UNL     1      -5.314   1.487 -28.979  1.00  0.00     0.107 A 
ATOM      6  C   UNL     1      -4.495   2.615 -28.857  1.00  0.00     0.134 A 
ATOM      7  C   UNL     1      -3.192   2.488 -28.380  1.00  0.00     0.093 A 
ATOM      8  C   UNL     1      -2.718   1.226 -28.029  1.00  0.00     0.123 A 
ATOM      9  C   UNL     1      -3.524   0.097 -28.147  1.00  0.00     0.094 A 
ATOM     10  C   UNL     1      -4.828   0.230 -28.625  1.00  0.00     0.146 A 
ATOM     11  O   UNL     1      -5.579  -0.914 -28.720  1.00  0.00    -0.456 OA
ENDROOT
BRANCH   1  12
ATOM     12  C   UNL     1      -7.604  -2.101 -29.240  1.00  0.00     0.021 A 
ATOM     13  C   UNL     1      -8.980  -4.570 -29.298  1.00  0.00     0.160 A 
ATOM     14  C   UNL     1      -8.980  -3.766 -28.155  1.00  0.00     0.158 A 
ATOM     15  C   UNL     1      -8.276  -4.136 -30.418  1.00  0.00     0.051 A 
ATOM     16  C   UNL     1      -8.303  -2.549 -28.113  1.00  0.00     0.062 A 
ATOM     17  C   UNL     1      -7.592  -2.912 -30.387  1.00  0.00     0.016 A 
BRANCH  13  18
ATOM     18  O   UNL     1      -9.690  -5.737 -29.187  1.00  0.00    -0.493 OA
ATOM     19  C   UNL     1     -10.921  -5.803 -29.899  1.00  0.00     0.278 C 
ENDBRANCH  13  18
BRANCH  14  20
ATOM     20  O   UNL     1      -9.657  -4.163 -27.034  1.00  0.00    -0.504 OA
ATOM     21  H   UNL     1      -9.083  -4.836 -26.618  1.00  0.00     0.293 HD
ENDBRANCH  14  20
ENDBRANCH   1  12
BRANCH   6  22
ATOM     22  O   UNL     1      -4.910   3.877 -29.189  1.00  0.00    -0.507 OA
ATOM     23  H   UNL     1      -4.317   4.217 -29.898  1.00  0.00     0.293 HD
ENDBRANCH   6  22
BRANCH   8  24
ATOM     24  O   UNL     1      -1.451   1.052 -27.556  1.00  0.00    -0.508 OA
ATOM     25  H   UNL     1      -0.912   1.820 -27.812  1.00  0.00     0.293 HD
ENDBRANCH   8  24
TORSDOF 5
ENDMDL
