MODEL 1
REMARK VINA RESULT:      -7.4      0.000      0.000
REMARK SMILES Oc1ccc(/C=C/c2cc(O)cc(O)c2)cc1
REMARK SMILES IDX 6 1 7 2 5 3 4 4 3 5 2 6 16 7 17 8 1 9 8 11 15 12 9 13 13 14
REMARK SMILES IDX 10 15 12 16 14 17 11 19
REMARK H PARENT 1 10 14 18 11 20
ROOT
ATOM      1  C   UNL     1      -6.592  -2.585 -28.882  1.00  0.00     0.009 C 
ATOM      2  C   UNL     1      -7.483  -3.101 -29.744  1.00  0.00     0.009 C 
ENDROOT
BRANCH   1   3
ATOM      3  C   UNL     1      -5.397  -1.835 -29.294  1.00  0.00    -0.025 A 
ATOM      4  C   UNL     1      -4.186  -1.911 -28.591  1.00  0.00     0.012 A 
ATOM      5  C   UNL     1      -3.077  -1.161 -28.997  1.00  0.00     0.047 A 
ATOM      6  C   UNL     1      -3.185  -0.325 -30.102  1.00  0.00     0.115 A 
ATOM      7  C   UNL     1      -5.486  -0.974 -30.395  1.00  0.00     0.012 A 
ATOM      8  C   UNL     1      -4.380  -0.223 -30.802  1.00  0.00     0.047 A 
BRANCH   6   9
ATOM      9  O   UNL     1      -2.132   0.426 -30.532  1.00  0.00    -0.508 OA
ATOM     10  H   UNL     1      -2.444   1.030 -31.225  1.00  0.00     0.293 HD
ENDBRANCH   6   9
ENDBRANCH   1   3
BRANCH   2  11
ATOM     11  C   UNL     1      -8.686  -3.845 -29.338  1.00  0.00    -0.018 A 
ATOM     12  C   UNL     1      -9.467  -4.566 -30.253  1.00  0.00     0.054 A 
ATOM     13  C   UNL     1      -9.024  -3.888 -27.979  1.00  0.00     0.054 A 
ATOM     14  C   UNL     1     -10.577  -5.284 -29.808  1.00  0.00     0.119 A 
ATOM     15  C   UNL     1     -10.136  -4.612 -27.555  1.00  0.00     0.119 A 
ATOM     16  C   UNL     1     -10.921  -5.312 -28.463  1.00  0.00     0.092 A 
BRANCH  14  17
ATOM     17  O   UNL     1     -11.358  -5.992 -30.675  1.00  0.00    -0.508 OA
ATOM     18  H   UNL     1     -10.899  -6.817 -30.905  1.00  0.00     0.293 HD
ENDBRANCH  14  17
BRANCH  15  19
ATOM     19  O   UNL     1     -10.422  -4.614 -26.220  1.00  0.00    -0.508 OA
ATOM     20  H   UNL     1      -9.873  -5.291 -25.789  1.00  0.00     0.293 HD
ENDBRANCH  15  19
ENDBRANCH   2  11
TORSDOF 5
ENDMDL
MODEL 2
REMARK VINA RESULT:      -7.3      0.307      2.020
REMARK SMILES Oc1ccc(/C=C/c2cc(O)cc(O)c2)cc1
REMARK SMILES IDX 6 1 7 2 5 3 4 4 3 5 2 6 16 7 17 8 1 9 8 11 15 12 9 13 13 14
REMARK SMILES IDX 10 15 12 16 14 17 11 19
REMARK H PARENT 1 10 14 18 11 20
ROOT
ATOM      1  C   UNL     1      -6.802  -2.655 -28.715  1.00  0.00     0.009 C 
ATOM      2  C   UNL     1      -7.641  -3.279 -29.557  1.00  0.00     0.009 C 
ENDROOT
BRANCH   1   3
ATOM      3  C   UNL     1      -5.607  -1.919 -29.149  1.00  0.00    -0.025 A 
ATOM      4  C   UNL     1      -4.390  -1.988 -28.455  1.00  0.00     0.012 A 
ATOM      5  C   UNL     1      -3.281  -1.252 -28.882  1.00  0.00     0.047 A 
ATOM      6  C   UNL     1      -3.393  -0.435 -30.002  1.00  0.00     0.115 A 
ATOM      7  C   UNL     1      -5.699  -1.077 -30.265  1.00  0.00     0.012 A 
ATOM      8  C   UNL     1      -4.593  -0.340 -30.694  1.00  0.00     0.047 A 
BRANCH   6   9
ATOM      9  O   UNL     1      -2.339   0.302 -30.453  1.00  0.00    -0.508 OA
ATOM     10  H   UNL     1      -1.625   0.257 -29.796  1.00  0.00     0.293 HD
ENDBRANCH   6   9
ENDBRANCH   1   3
BRANCH   2  11
ATOM     11  C   UNL     1      -8.844  -4.010 -29.129  1.00  0.00    -0.018 A 
ATOM     12  C   UNL     1      -9.344  -3.931 -27.821  1.00  0.00     0.054 A 
ATOM     13  C   UNL     1      -9.551  -4.759 -30.079  1.00  0.00     0.054 A 
ATOM     14  C   UNL     1     -10.510  -4.616 -27.478  1.00  0.00     0.119 A 
ATOM     15  C   UNL     1     -10.714  -5.434 -29.717  1.00  0.00     0.119 A 
ATOM     16  C   UNL     1     -11.200  -5.372 -28.417  1.00  0.00     0.092 A 
BRANCH  14  17
ATOM     17  O   UNL     1     -11.018  -4.561 -26.213  1.00  0.00    -0.508 OA
ATOM     18  H   UNL     1     -10.619  -3.806 -25.749  1.00  0.00     0.293 HD
ENDBRANCH  14  17
BRANCH  15  19
ATOM     19  O   UNL     1     -11.359  -6.153 -30.682  1.00  0.00    -0.508 OA
ATOM     20  H   UNL     1     -11.387  -7.084 -30.404  1.00  0.00     0.293 HD
ENDBRANCH  15  19
ENDBRANCH   2  11
TORSDOF 5
ENDMDL
MODEL 3
REMARK VINA RESULT:      -7.3      5.019      5.681
REMARK SMILES Oc1ccc(/C=C/c2cc(O)cc(O)c2)cc1
REMARK SMILES IDX 6 1 7 2 5 3 4 4 3 5 2 6 16 7 17 8 1 9 8 11 15 12 9 13 13 14
REMARK SMILES IDX 10 15 12 16 14 17 11 19
REMARK H PARENT 1 10 14 18 11 20
ROOT
ATOM      1  C   UNL     1      -5.082  -0.974 -25.947  1.00  0.00     0.009 C 
ATOM      2  C   UNL     1      -5.799  -0.066 -25.265  1.00  0.00     0.009 C 
ENDROOT
BRANCH   1   3
ATOM      3  C   UNL     1      -4.111  -0.627 -26.995  1.00  0.00    -0.025 A 
ATOM      4  C   UNL     1      -3.356   0.555 -26.956  1.00  0.00     0.012 A 
ATOM      5  C   UNL     1      -2.461   0.865 -27.984  1.00  0.00     0.047 A 
ATOM      6  C   UNL     1      -2.330  -0.004 -29.062  1.00  0.00     0.115 A 
ATOM      7  C   UNL     1      -3.972  -1.479 -28.098  1.00  0.00     0.012 A 
ATOM      8  C   UNL     1      -3.080  -1.172 -29.128  1.00  0.00     0.047 A 
BRANCH   6   9
ATOM      9  O   UNL     1      -1.472   0.258 -30.088  1.00  0.00    -0.508 OA
ATOM     10  H   UNL     1      -1.980   0.630 -30.828  1.00  0.00     0.293 HD
ENDBRANCH   6   9
ENDBRANCH   1   3
BRANCH   2  11
ATOM     11  C   UNL     1      -6.765  -0.407 -24.209  1.00  0.00    -0.018 A 
ATOM     12  C   UNL     1      -7.831   0.439 -23.867  1.00  0.00     0.054 A 
ATOM     13  C   UNL     1      -6.653  -1.648 -23.569  1.00  0.00     0.054 A 
ATOM     14  C   UNL     1      -8.739   0.050 -22.883  1.00  0.00     0.119 A 
ATOM     15  C   UNL     1      -7.573  -2.018 -22.589  1.00  0.00     0.119 A 
ATOM     16  C   UNL     1      -8.618  -1.174 -22.236  1.00  0.00     0.092 A 
BRANCH  14  17
ATOM     17  O   UNL     1      -9.785   0.852 -22.526  1.00  0.00    -0.508 OA
ATOM     18  H   UNL     1     -10.247   1.138 -23.331  1.00  0.00     0.293 HD
ENDBRANCH  14  17
BRANCH  15  19
ATOM     19  O   UNL     1      -7.413  -3.236 -21.995  1.00  0.00    -0.508 OA
ATOM     20  H   UNL     1      -6.610  -3.208 -21.448  1.00  0.00     0.293 HD
ENDBRANCH  15  19
ENDBRANCH   2  11
TORSDOF 5
ENDMDL
MODEL 4
REMARK VINA RESULT:      -7.1      5.018      5.667
REMARK SMILES Oc1ccc(/C=C/c2cc(O)cc(O)c2)cc1
REMARK SMILES IDX 6 1 7 2 5 3 4 4 3 5 2 6 16 7 17 8 1 9 8 11 15 12 9 13 13 14
REMARK SMILES IDX 10 15 12 16 14 17 11 19
REMARK H PARENT 1 10 14 18 11 20
ROOT
ATOM      1  C   UNL     1      -5.132  -1.039 -26.078  1.00  0.00     0.009 C 
ATOM      2  C   UNL     1      -5.717  -0.159 -25.250  1.00  0.00     0.009 C 
ENDROOT
BRANCH   1   3
ATOM      3  C   UNL     1      -4.129  -0.668 -27.086  1.00  0.00    -0.025 A 
ATOM      4  C   UNL     1      -3.383   0.517 -27.001  1.00  0.00     0.012 A 
ATOM      5  C   UNL     1      -2.456   0.850 -27.993  1.00  0.00     0.047 A 
ATOM      6  C   UNL     1      -2.283   0.001 -29.081  1.00  0.00     0.115 A 
ATOM      7  C   UNL     1      -3.948  -1.500 -28.198  1.00  0.00     0.012 A 
ATOM      8  C   UNL     1      -3.023  -1.169 -29.192  1.00  0.00     0.047 A 
BRANCH   6   9
ATOM      9  O   UNL     1      -1.394   0.286 -30.072  1.00  0.00    -0.508 OA
ATOM     10  H   UNL     1      -0.643  -0.326 -30.001  1.00  0.00     0.293 HD
ENDBRANCH   6   9
ENDBRANCH   1   3
BRANCH   2  11
ATOM     11  C   UNL     1      -6.715  -0.526 -24.232  1.00  0.00    -0.018 A 
ATOM     12  C   UNL     1      -6.652  -1.732 -23.520  1.00  0.00     0.054 A 
ATOM     13  C   UNL     1      -7.727   0.392 -23.920  1.00  0.00     0.054 A 
ATOM     14  C   UNL     1      -7.604  -2.013 -22.540  1.00  0.00     0.119 A 
ATOM     15  C   UNL     1      -8.667   0.093 -22.937  1.00  0.00     0.119 A 
ATOM     16  C   UNL     1      -8.617  -1.110 -22.243  1.00  0.00     0.092 A 
BRANCH  14  17
ATOM     17  O   UNL     1      -7.571  -3.180 -21.833  1.00  0.00    -0.508 OA
ATOM     18  H   UNL     1      -7.386  -3.911 -22.446  1.00  0.00     0.293 HD
ENDBRANCH  14  17
BRANCH  15  19
ATOM     19  O   UNL     1      -9.634   1.021 -22.677  1.00  0.00    -0.508 OA
ATOM     20  H   UNL     1      -9.363   1.536 -21.899  1.00  0.00     0.293 HD
ENDBRANCH  15  19
ENDBRANCH   2  11
TORSDOF 5
ENDMDL
MODEL 5
REMARK VINA RESULT:      -7.1      4.037      8.018
REMARK SMILES Oc1ccc(/C=C/c2cc(O)cc(O)c2)cc1
REMARK SMILES IDX 6 1 7 2 5 3 4 4 3 5 2 6 16 7 17 8 1 9 8 11 15 12 9 13 13 14
REMARK SMILES IDX 10 15 12 16 14 17 11 19
REMARK H PARENT 1 10 14 18 11 20
ROOT
ATOM      1  C   UNL     1      -6.268   0.357 -31.602  1.00  0.00     0.009 C 
ATOM      2  C   UNL     1      -5.773  -0.061 -30.426  1.00  0.00     0.009 C 
ENDROOT
BRANCH   1   3
ATOM      3  C   UNL     1      -7.662   0.150 -32.020  1.00  0.00    -0.025 A 
ATOM      4  C   UNL     1      -8.174   0.685 -33.212  1.00  0.00     0.012 A 
ATOM      5  C   UNL     1      -9.513   0.491 -33.564  1.00  0.00     0.047 A 
ATOM      6  C   UNL     1     -10.346  -0.231 -32.715  1.00  0.00     0.115 A 
ATOM      7  C   UNL     1      -8.523  -0.560 -31.175  1.00  0.00     0.012 A 
ATOM      8  C   UNL     1      -9.862  -0.755 -31.523  1.00  0.00     0.047 A 
BRANCH   6   9
ATOM      9  O   UNL     1     -11.658  -0.443 -33.016  1.00  0.00    -0.508 OA
ATOM     10  H   UNL     1     -11.805  -1.399 -33.103  1.00  0.00     0.293 HD
ENDBRANCH   6   9
ENDBRANCH   1   3
BRANCH   2  11
ATOM     11  C   UNL     1      -4.381   0.150 -29.998  1.00  0.00    -0.018 A 
ATOM     12  C   UNL     1      -4.042   0.447 -28.670  1.00  0.00     0.054 A 
ATOM     13  C   UNL     1      -3.355  -0.014 -30.938  1.00  0.00     0.054 A 
ATOM     14  C   UNL     1      -2.703   0.602 -28.311  1.00  0.00     0.119 A 
ATOM     15  C   UNL     1      -2.024   0.144 -30.558  1.00  0.00     0.119 A 
ATOM     16  C   UNL     1      -1.687   0.455 -29.247  1.00  0.00     0.092 A 
BRANCH  14  17
ATOM     17  O   UNL     1      -2.342   0.894 -27.027  1.00  0.00    -0.508 OA
ATOM     18  H   UNL     1      -1.422   0.610 -26.890  1.00  0.00     0.293 HD
ENDBRANCH  14  17
BRANCH  15  19
ATOM     19  O   UNL     1      -1.066  -0.023 -31.516  1.00  0.00    -0.508 OA
ATOM     20  H   UNL     1      -0.193   0.052 -31.095  1.00  0.00     0.293 HD
ENDBRANCH  15  19
ENDBRANCH   2  11
TORSDOF 5
ENDMDL
MODEL 6
REMARK VINA RESULT:      -7.1      1.379      7.663
REMARK SMILES Oc1ccc(/C=C/c2cc(O)cc(O)c2)cc1
REMARK SMILES IDX 6 1 7 2 5 3 4 4 3 5 2 6 16 7 17 8 1 9 8 11 15 12 9 13 13 14
REMARK SMILES IDX 10 15 12 16 14 17 11 19
REMARK H PARENT 1 10 14 18 11 20
ROOT
ATOM      1  C   UNL     1      -6.760  -2.516 -29.521  1.00  0.00     0.009 C 
ATOM      2  C   UNL     1      -5.824  -2.178 -28.620  1.00  0.00     0.009 C 
ENDROOT
BRANCH   1   3
ATOM      3  C   UNL     1      -7.953  -3.312 -29.199  1.00  0.00    -0.025 A 
ATOM      4  C   UNL     1      -8.370  -4.391 -29.992  1.00  0.00     0.012 A 
ATOM      5  C   UNL     1      -9.526  -5.109 -29.669  1.00  0.00     0.047 A 
ATOM      6  C   UNL     1     -10.273  -4.739 -28.556  1.00  0.00     0.115 A 
ATOM      7  C   UNL     1      -8.730  -2.949 -28.091  1.00  0.00     0.012 A 
ATOM      8  C   UNL     1      -9.885  -3.664 -27.767  1.00  0.00     0.047 A 
BRANCH   6   9
ATOM      9  O   UNL     1     -11.407  -5.408 -28.206  1.00  0.00    -0.508 OA
ATOM     10  H   UNL     1     -11.161  -6.299 -27.907  1.00  0.00     0.293 HD
ENDBRANCH   6   9
ENDBRANCH   1   3
BRANCH   2  11
ATOM     11  C   UNL     1      -4.633  -1.373 -28.934  1.00  0.00    -0.018 A 
ATOM     12  C   UNL     1      -3.905  -0.694 -27.946  1.00  0.00     0.054 A 
ATOM     13  C   UNL     1      -4.174  -1.338 -30.257  1.00  0.00     0.054 A 
ATOM     14  C   UNL     1      -2.761   0.025 -28.295  1.00  0.00     0.119 A 
ATOM     15  C   UNL     1      -3.029  -0.615 -30.584  1.00  0.00     0.119 A 
ATOM     16  C   UNL     1      -2.316   0.073 -29.610  1.00  0.00     0.092 A 
BRANCH  14  17
ATOM     17  O   UNL     1      -2.033   0.698 -27.356  1.00  0.00    -0.508 OA
ATOM     18  H   UNL     1      -1.094   0.656 -27.601  1.00  0.00     0.293 HD
ENDBRANCH  14  17
BRANCH  15  19
ATOM     19  O   UNL     1      -2.630  -0.611 -31.890  1.00  0.00    -0.508 OA
ATOM     20  H   UNL     1      -1.673  -0.773 -31.919  1.00  0.00     0.293 HD
ENDBRANCH  15  19
ENDBRANCH   2  11
TORSDOF 5
ENDMDL
MODEL 7
REMARK VINA RESULT:      -7.0      5.268      8.542
REMARK SMILES Oc1ccc(/C=C/c2cc(O)cc(O)c2)cc1
REMARK SMILES IDX 6 1 7 2 5 3 4 4 3 5 2 6 16 7 17 8 1 9 8 11 15 12 9 13 13 14
REMARK SMILES IDX 10 15 12 16 14 17 11 19
REMARK H PARENT 1 10 14 18 11 20
ROOT
ATOM      1  C   UNL     1      -6.544   2.122 -31.122  1.00  0.00     0.009 C 
ATOM      2  C   UNL     1      -5.973   1.540 -30.055  1.00  0.00     0.009 C 
ENDROOT
BRANCH   1   3
ATOM      3  C   UNL     1      -7.707   1.568 -31.829  1.00  0.00    -0.025 A 
ATOM      4  C   UNL     1      -8.972   1.473 -31.231  1.00  0.00     0.012 A 
ATOM      5  C   UNL     1     -10.050   0.915 -31.925  1.00  0.00     0.047 A 
ATOM      6  C   UNL     1      -9.858   0.441 -33.219  1.00  0.00     0.115 A 
ATOM      7  C   UNL     1      -7.535   1.070 -33.127  1.00  0.00     0.012 A 
ATOM      8  C   UNL     1      -8.610   0.511 -33.823  1.00  0.00     0.047 A 
BRANCH   6   9
ATOM      9  O   UNL     1     -10.879  -0.113 -33.932  1.00  0.00    -0.508 OA
ATOM     10  H   UNL     1     -10.501  -0.642 -34.654  1.00  0.00     0.293 HD
ENDBRANCH   6   9
ENDBRANCH   1   3
BRANCH   2  11
ATOM     11  C   UNL     1      -4.814   2.094 -29.337  1.00  0.00    -0.018 A 
ATOM     12  C   UNL     1      -3.795   1.282 -28.820  1.00  0.00     0.054 A 
ATOM     13  C   UNL     1      -4.695   3.486 -29.223  1.00  0.00     0.054 A 
ATOM     14  C   UNL     1      -2.700   1.863 -28.180  1.00  0.00     0.119 A 
ATOM     15  C   UNL     1      -3.593   4.046 -28.582  1.00  0.00     0.119 A 
ATOM     16  C   UNL     1      -2.590   3.242 -28.053  1.00  0.00     0.092 A 
BRANCH  14  17
ATOM     17  O   UNL     1      -1.693   1.099 -27.663  1.00  0.00    -0.508 OA
ATOM     18  H   UNL     1      -1.274   0.605 -28.388  1.00  0.00     0.293 HD
ENDBRANCH  14  17
BRANCH  15  19
ATOM     19  O   UNL     1      -3.530   5.407 -28.495  1.00  0.00    -0.508 OA
ATOM     20  H   UNL     1      -2.600   5.665 -28.387  1.00  0.00     0.293 HD
ENDBRANCH  15  19
ENDBRANCH   2  11
TORSDOF 5
ENDMDL
MODEL 8
REMARK VINA RESULT:      -7.0      4.681      5.966
REMARK SMILES Oc1ccc(/C=C/c2cc(O)cc(O)c2)cc1
REMARK SMILES IDX 6 1 7 2 5 3 4 4 3 5 2 6 16 7 17 8 1 9 8 11 15 12 9 13 13 14
REMARK SMILES IDX 10 15 12 16 14 17 11 19
REMARK H PARENT 1 10 14 18 11 20
ROOT
ATOM      1  C   UNL     1      -6.206   2.540 -30.181  1.00  0.00     0.009 C 
ATOM      2  C   UNL     1      -6.363   1.991 -31.396  1.00  0.00     0.009 C 
ENDROOT
BRANCH   1   3
ATOM      3  C   UNL     1      -5.054   3.371 -29.803  1.00  0.00    -0.025 A 
ATOM      4  C   UNL     1      -4.125   2.967 -28.834  1.00  0.00     0.012 A 
ATOM      5  C   UNL     1      -3.056   3.796 -28.480  1.00  0.00     0.047 A 
ATOM      6  C   UNL     1      -2.923   5.039 -29.091  1.00  0.00     0.115 A 
ATOM      7  C   UNL     1      -4.908   4.633 -30.394  1.00  0.00     0.012 A 
ATOM      8  C   UNL     1      -3.841   5.464 -30.042  1.00  0.00     0.047 A 
BRANCH   6   9
ATOM      9  O   UNL     1      -1.898   5.880 -28.776  1.00  0.00    -0.508 OA
ATOM     10  H   UNL     1      -2.215   6.795 -28.853  1.00  0.00     0.293 HD
ENDBRANCH   6   9
ENDBRANCH   1   3
BRANCH   2  11
ATOM     11  C   UNL     1      -7.518   1.166 -31.783  1.00  0.00    -0.018 A 
ATOM     12  C   UNL     1      -7.519  -0.231 -31.654  1.00  0.00     0.054 A 
ATOM     13  C   UNL     1      -8.681   1.804 -32.236  1.00  0.00     0.054 A 
ATOM     14  C   UNL     1      -8.656  -0.961 -32.002  1.00  0.00     0.119 A 
ATOM     15  C   UNL     1      -9.805   1.056 -32.576  1.00  0.00     0.119 A 
ATOM     16  C   UNL     1      -9.802  -0.329 -32.466  1.00  0.00     0.092 A 
BRANCH  14  17
ATOM     17  O   UNL     1      -8.686  -2.321 -31.890  1.00  0.00    -0.508 OA
ATOM     18  H   UNL     1      -8.524  -2.562 -30.962  1.00  0.00     0.293 HD
ENDBRANCH  14  17
BRANCH  15  19
ATOM     19  O   UNL     1     -10.908   1.730 -33.016  1.00  0.00    -0.508 OA
ATOM     20  H   UNL     1     -10.773   2.679 -32.855  1.00  0.00     0.293 HD
ENDBRANCH  15  19
ENDBRANCH   2  11
TORSDOF 5
ENDMDL
MODEL 9
REMARK VINA RESULT:      -6.9      4.696      8.001
REMARK SMILES Oc1ccc(/C=C/c2cc(O)cc(O)c2)cc1
REMARK SMILES IDX 6 1 7 2 5 3 4 4 3 5 2 6 16 7 17 8 1 9 8 11 15 12 9 13 13 14
REMARK SMILES IDX 10 15 12 16 14 17 11 19
REMARK H PARENT 1 10 14 18 11 20
ROOT
ATOM      1  C   UNL     1      -5.571  -0.492 -25.042  1.00  0.00     0.009 C 
ATOM      2  C   UNL     1      -5.669  -0.879 -26.324  1.00  0.00     0.009 C 
ENDROOT
BRANCH   1   3
ATOM      3  C   UNL     1      -6.660  -0.624 -24.064  1.00  0.00    -0.025 A 
ATOM      4  C   UNL     1      -6.795  -1.751 -23.239  1.00  0.00     0.012 A 
ATOM      5  C   UNL     1      -7.860  -1.854 -22.339  1.00  0.00     0.047 A 
ATOM      6  C   UNL     1      -8.800  -0.831 -22.272  1.00  0.00     0.115 A 
ATOM      7  C   UNL     1      -7.628   0.386 -23.989  1.00  0.00     0.012 A 
ATOM      8  C   UNL     1      -8.693   0.286 -23.091  1.00  0.00     0.047 A 
BRANCH   6   9
ATOM      9  O   UNL     1      -9.855  -0.890 -21.412  1.00  0.00    -0.508 OA
ATOM     10  H   UNL     1     -10.195   0.010 -21.276  1.00  0.00     0.293 HD
ENDBRANCH   6   9
ENDBRANCH   1   3
BRANCH   2  11
ATOM     11  C   UNL     1      -4.579  -0.758 -27.305  1.00  0.00    -0.018 A 
ATOM     12  C   UNL     1      -4.579  -1.466 -28.516  1.00  0.00     0.054 A 
ATOM     13  C   UNL     1      -3.539   0.145 -27.048  1.00  0.00     0.054 A 
ATOM     14  C   UNL     1      -3.538  -1.286 -29.427  1.00  0.00     0.119 A 
ATOM     15  C   UNL     1      -2.510   0.311 -27.972  1.00  0.00     0.119 A 
ATOM     16  C   UNL     1      -2.498  -0.403 -29.164  1.00  0.00     0.092 A 
BRANCH  14  17
ATOM     17  O   UNL     1      -3.507  -1.963 -30.612  1.00  0.00    -0.508 OA
ATOM     18  H   UNL     1      -3.180  -2.863 -30.448  1.00  0.00     0.293 HD
ENDBRANCH  14  17
BRANCH  15  19
ATOM     19  O   UNL     1      -1.520   1.201 -27.668  1.00  0.00    -0.508 OA
ATOM     20  H   UNL     1      -0.770   1.041 -28.265  1.00  0.00     0.293 HD
ENDBRANCH  15  19
ENDBRANCH   2  11
TORSDOF 5
ENDMDL
MODEL 10
REMARK VINA RESULT:      -6.9      4.721      8.258
REMARK SMILES Oc1ccc(/C=C/c2cc(O)cc(O)c2)cc1
REMARK SMILES IDX 6 1 7 2 5 3 4 4 3 5 2 6 16 7 17 8 1 9 8 11 15 12 9 13 13 14
REMARK SMILES IDX 10 15 12 16 14 17 11 19
REMARK H PARENT 1 10 14 18 11 20
ROOT
ATOM      1  C   UNL     1      -5.754  -0.268 -25.052  1.00  0.00     0.009 C 
ATOM      2  C   UNL     1      -5.537  -1.041 -26.128  1.00  0.00     0.009 C 
ENDROOT
BRANCH   1   3
ATOM      3  C   UNL     1      -6.779  -0.550 -24.037  1.00  0.00    -0.025 A 
ATOM      4  C   UNL     1      -6.773  -1.726 -23.273  1.00  0.00     0.012 A 
ATOM      5  C   UNL     1      -7.780  -1.974 -22.335  1.00  0.00     0.047 A 
ATOM      6  C   UNL     1      -8.803  -1.046 -22.169  1.00  0.00     0.115 A 
ATOM      7  C   UNL     1      -7.827   0.362 -23.863  1.00  0.00     0.012 A 
ATOM      8  C   UNL     1      -8.836   0.117 -22.927  1.00  0.00     0.047 A 
BRANCH   6   9
ATOM      9  O   UNL     1      -9.806  -1.247 -21.269  1.00  0.00    -0.508 OA
ATOM     10  H   UNL     1     -10.440  -0.516 -21.344  1.00  0.00     0.293 HD
ENDBRANCH   6   9
ENDBRANCH   1   3
BRANCH   2  11
ATOM     11  C   UNL     1      -4.507  -0.769 -27.142  1.00  0.00    -0.018 A 
ATOM     12  C   UNL     1      -3.471   0.153 -26.930  1.00  0.00     0.054 A 
ATOM     13  C   UNL     1      -4.526  -1.503 -28.336  1.00  0.00     0.054 A 
ATOM     14  C   UNL     1      -2.499   0.346 -27.912  1.00  0.00     0.119 A 
ATOM     15  C   UNL     1      -3.545  -1.296 -29.303  1.00  0.00     0.119 A 
ATOM     16  C   UNL     1      -2.528  -0.371 -29.102  1.00  0.00     0.092 A 
BRANCH  14  17
ATOM     17  O   UNL     1      -1.481   1.238 -27.736  1.00  0.00    -0.508 OA
ATOM     18  H   UNL     1      -1.853   2.078 -27.421  1.00  0.00     0.293 HD
ENDBRANCH  14  17
BRANCH  15  19
ATOM     19  O   UNL     1      -3.615  -2.035 -30.448  1.00  0.00    -0.508 OA
ATOM     20  H   UNL     1      -3.028  -2.804 -30.354  1.00  0.00     0.293 HD
ENDBRANCH  15  19
ENDBRANCH   2  11
TORSDOF 5
ENDMDL
