MODEL 1
REMARK VINA RESULT:      -7.1      0.000      0.000
REMARK SMILES Oc1cc(O)cc(-c2c(O)cc(O)cc2O)c1
REMARK SMILES IDX 17 1 7 2 6 3 4 4 3 5 2 6 8 7 15 8 9 9 14 10 11 11 12 12
REMARK SMILES IDX 16 13 10 15 13 17 1 19 5 21
REMARK H PARENT 16 14 10 16 13 18 1 20 5 22
ROOT
ATOM      1  C   UNL     1      -6.383   1.044 -31.743  1.00  0.00     0.055 A 
ATOM      2  C   UNL     1      -5.922   0.079 -30.830  1.00  0.00    -0.004 A 
ATOM      3  C   UNL     1      -6.649  -1.115 -30.697  1.00  0.00     0.055 A 
ATOM      4  C   UNL     1      -7.802  -1.324 -31.453  1.00  0.00     0.119 A 
ATOM      5  C   UNL     1      -8.258  -0.361 -32.345  1.00  0.00     0.092 A 
ATOM      6  C   UNL     1      -7.540   0.819 -32.484  1.00  0.00     0.119 A 
ENDROOT
BRANCH   2   7
ATOM      7  C   UNL     1      -4.713   0.322 -30.022  1.00  0.00     0.066 A 
ATOM      8  C   UNL     1      -3.430  -0.053 -30.470  1.00  0.00     0.130 A 
ATOM      9  C   UNL     1      -4.793   0.938 -28.757  1.00  0.00     0.130 A 
ATOM     10  C   UNL     1      -2.289   0.160 -29.694  1.00  0.00     0.093 A 
ATOM     11  C   UNL     1      -3.658   1.159 -27.975  1.00  0.00     0.093 A 
ATOM     12  C   UNL     1      -2.415   0.765 -28.451  1.00  0.00     0.122 A 
BRANCH   8  13
ATOM     13  O   UNL     1      -3.207  -0.632 -31.693  1.00  0.00    -0.507 OA
ATOM     14  H   UNL     1      -3.598  -0.068 -32.384  1.00  0.00     0.293 HD
ENDBRANCH   8  13
BRANCH   9  15
ATOM     15  O   UNL     1      -6.018   1.329 -28.277  1.00  0.00    -0.507 OA
ATOM     16  H   UNL     1      -6.700   0.739 -28.640  1.00  0.00     0.293 HD
ENDBRANCH   9  15
BRANCH  12  17
ATOM     17  O   UNL     1      -1.329   0.995 -27.659  1.00  0.00    -0.508 OA
ATOM     18  H   UNL     1      -1.529   0.682 -26.760  1.00  0.00     0.293 HD
ENDBRANCH  12  17
ENDBRANCH   2   7
BRANCH   6  19
ATOM     19  O   UNL     1      -7.941   1.798 -33.345  1.00  0.00    -0.508 OA
ATOM     20  H   UNL     1      -8.895   1.941 -33.226  1.00  0.00     0.293 HD
ENDBRANCH   6  19
BRANCH   4  21
ATOM     21  O   UNL     1      -8.521  -2.477 -31.343  1.00  0.00    -0.508 OA
ATOM     22  H   UNL     1      -8.994  -2.465 -30.493  1.00  0.00     0.293 HD
ENDBRANCH   4  21
TORSDOF 6
ENDMDL
MODEL 2
REMARK VINA RESULT:      -7.0      0.101      2.007
REMARK SMILES Oc1cc(O)cc(-c2c(O)cc(O)cc2O)c1
REMARK SMILES IDX 17 1 7 2 6 3 4 4 3 5 2 6 8 7 15 8 9 9 14 10 11 11 12 12
REMARK SMILES IDX 16 13 10 15 13 17 1 19 5 21
REMARK H PARENT 16 14 10 16 13 18 1 20 5 22
ROOT
ATOM      1  C   UNL     1      -6.656  -1.007 -30.741  1.00  0.00     0.055 A 
ATOM      2  C   UNL     1      -5.931   0.193 -30.829  1.00  0.00    -0.004 A 
ATOM      3  C   UNL     1      -6.384   1.183 -31.717  1.00  0.00     0.055 A 
ATOM      4  C   UNL     1      -7.523   0.965 -32.490  1.00  0.00     0.119 A 
ATOM      5  C   UNL     1      -8.230  -0.228 -32.406  1.00  0.00     0.092 A 
ATOM      6  C   UNL     1      -7.788  -1.208 -31.526  1.00  0.00     0.119 A 
ENDROOT
BRANCH   2   7
ATOM      7  C   UNL     1      -4.716   0.401 -30.020  1.00  0.00     0.066 A 
ATOM      8  C   UNL     1      -3.444  -0.008 -30.468  1.00  0.00     0.130 A 
ATOM      9  C   UNL     1      -4.780   1.017 -28.754  1.00  0.00     0.130 A 
ATOM     10  C   UNL     1      -2.298   0.172 -29.692  1.00  0.00     0.093 A 
ATOM     11  C   UNL     1      -3.639   1.206 -27.971  1.00  0.00     0.093 A 
ATOM     12  C   UNL     1      -2.407   0.778 -28.448  1.00  0.00     0.122 A 
BRANCH   8  13
ATOM     13  O   UNL     1      -3.237  -0.592 -31.693  1.00  0.00    -0.507 OA
ATOM     14  H   UNL     1      -3.976  -0.358 -32.282  1.00  0.00     0.293 HD
ENDBRANCH   8  13
BRANCH   9  15
ATOM     15  O   UNL     1      -5.994   1.441 -28.275  1.00  0.00    -0.507 OA
ATOM     16  H   UNL     1      -5.877   2.300 -27.838  1.00  0.00     0.293 HD
ENDBRANCH   9  15
BRANCH  12  17
ATOM     17  O   UNL     1      -1.315   0.976 -27.656  1.00  0.00    -0.508 OA
ATOM     18  H   UNL     1      -1.608   1.378 -26.820  1.00  0.00     0.293 HD
ENDBRANCH  12  17
ENDBRANCH   2   7
BRANCH   6  19
ATOM     19  O   UNL     1      -8.443  -2.398 -31.403  1.00  0.00    -0.508 OA
ATOM     20  H   UNL     1      -8.272  -2.754 -30.515  1.00  0.00     0.293 HD
ENDBRANCH   6  19
BRANCH   4  21
ATOM     21  O   UNL     1      -7.983   1.914 -33.355  1.00  0.00    -0.508 OA
ATOM     22  H   UNL     1      -8.753   1.553 -33.827  1.00  0.00     0.293 HD
ENDBRANCH   4  21
TORSDOF 6
ENDMDL
MODEL 3
REMARK VINA RESULT:      -7.0      0.079      2.031
REMARK SMILES Oc1cc(O)cc(-c2c(O)cc(O)cc2O)c1
REMARK SMILES IDX 17 1 7 2 6 3 4 4 3 5 2 6 8 7 15 8 9 9 14 10 11 11 12 12
REMARK SMILES IDX 16 13 10 15 13 17 1 19 5 21
REMARK H PARENT 16 14 10 16 13 18 1 20 5 22
ROOT
ATOM      1  C   UNL     1      -6.343   1.096 -31.743  1.00  0.00     0.055 A 
ATOM      2  C   UNL     1      -5.915   0.117 -30.830  1.00  0.00    -0.004 A 
ATOM      3  C   UNL     1      -6.659  -1.070 -30.728  1.00  0.00     0.055 A 
ATOM      4  C   UNL     1      -7.795  -1.257 -31.513  1.00  0.00     0.119 A 
ATOM      5  C   UNL     1      -8.219  -0.281 -32.406  1.00  0.00     0.092 A 
ATOM      6  C   UNL     1      -7.484   0.893 -32.514  1.00  0.00     0.119 A 
ENDROOT
BRANCH   2   7
ATOM      7  C   UNL     1      -4.723   0.338 -29.991  1.00  0.00     0.066 A 
ATOM      8  C   UNL     1      -4.810   0.933 -28.716  1.00  0.00     0.130 A 
ATOM      9  C   UNL     1      -3.438  -0.034 -30.437  1.00  0.00     0.130 A 
ATOM     10  C   UNL     1      -3.677   1.159 -27.932  1.00  0.00     0.093 A 
ATOM     11  C   UNL     1      -2.300   0.185 -29.659  1.00  0.00     0.093 A 
ATOM     12  C   UNL     1      -2.431   0.782 -28.413  1.00  0.00     0.122 A 
BRANCH   8  13
ATOM     13  O   UNL     1      -6.000   1.313 -28.150  1.00  0.00    -0.507 OA
ATOM     14  H   UNL     1      -6.304   0.606 -27.552  1.00  0.00     0.293 HD
ENDBRANCH   8  13
BRANCH   9  15
ATOM     15  O   UNL     1      -3.300  -0.622 -31.669  1.00  0.00    -0.507 OA
ATOM     16  H   UNL     1      -3.672  -1.519 -31.632  1.00  0.00     0.293 HD
ENDBRANCH   9  15
BRANCH  12  17
ATOM     17  O   UNL     1      -1.297   0.982 -27.681  1.00  0.00    -0.508 OA
ATOM     18  H   UNL     1      -1.358   0.455 -26.866  1.00  0.00     0.293 HD
ENDBRANCH  12  17
ENDBRANCH   2   7
BRANCH   6  19
ATOM     19  O   UNL     1      -7.854   1.885 -33.374  1.00  0.00    -0.508 OA
ATOM     20  H   UNL     1      -7.970   1.499 -34.259  1.00  0.00     0.293 HD
ENDBRANCH   6  19
BRANCH   4  21
ATOM     21  O   UNL     1      -8.530  -2.404 -31.432  1.00  0.00    -0.508 OA
ATOM     22  H   UNL     1      -8.031  -3.121 -31.859  1.00  0.00     0.293 HD
ENDBRANCH   4  21
TORSDOF 6
ENDMDL
MODEL 4
REMARK VINA RESULT:      -7.0      0.137      2.855
REMARK SMILES Oc1cc(O)cc(-c2c(O)cc(O)cc2O)c1
REMARK SMILES IDX 17 1 7 2 6 3 4 4 3 5 2 6 8 7 15 8 9 9 14 10 11 11 12 12
REMARK SMILES IDX 16 13 10 15 13 17 1 19 5 21
REMARK H PARENT 16 14 10 16 13 18 1 20 5 22
ROOT
ATOM      1  C   UNL     1      -6.673  -0.995 -30.748  1.00  0.00     0.055 A 
ATOM      2  C   UNL     1      -5.940   0.203 -30.807  1.00  0.00    -0.004 A 
ATOM      3  C   UNL     1      -6.373   1.207 -31.690  1.00  0.00     0.055 A 
ATOM      4  C   UNL     1      -7.499   1.004 -32.487  1.00  0.00     0.119 A 
ATOM      5  C   UNL     1      -8.212  -0.187 -32.431  1.00  0.00     0.092 A 
ATOM      6  C   UNL     1      -7.791  -1.181 -31.556  1.00  0.00     0.119 A 
ENDROOT
BRANCH   2   7
ATOM      7  C   UNL     1      -4.739   0.395 -29.974  1.00  0.00     0.066 A 
ATOM      8  C   UNL     1      -4.809   0.967 -28.687  1.00  0.00     0.130 A 
ATOM      9  C   UNL     1      -3.462   0.019 -30.437  1.00  0.00     0.130 A 
ATOM     10  C   UNL     1      -3.668   1.166 -27.908  1.00  0.00     0.093 A 
ATOM     11  C   UNL     1      -2.315   0.210 -29.665  1.00  0.00     0.093 A 
ATOM     12  C   UNL     1      -2.430   0.786 -28.406  1.00  0.00     0.122 A 
BRANCH   8  13
ATOM     13  O   UNL     1      -5.991   1.349 -28.104  1.00  0.00    -0.507 OA
ATOM     14  H   UNL     1      -5.915   2.277 -27.817  1.00  0.00     0.293 HD
ENDBRANCH   8  13
BRANCH   9  15
ATOM     15  O   UNL     1      -3.341  -0.548 -31.681  1.00  0.00    -0.507 OA
ATOM     16  H   UNL     1      -3.356   0.155 -32.350  1.00  0.00     0.293 HD
ENDBRANCH   9  15
BRANCH  12  17
ATOM     17  O   UNL     1      -1.288   0.959 -27.681  1.00  0.00    -0.508 OA
ATOM     18  H   UNL     1      -1.471   1.587 -26.961  1.00  0.00     0.293 HD
ENDBRANCH  12  17
ENDBRANCH   2   7
BRANCH   6  19
ATOM     19  O   UNL     1      -8.453  -2.369 -31.461  1.00  0.00    -0.508 OA
ATOM     20  H   UNL     1      -9.146  -2.392 -32.142  1.00  0.00     0.293 HD
ENDBRANCH   6  19
BRANCH   4  21
ATOM     21  O   UNL     1      -7.938   1.966 -33.348  1.00  0.00    -0.508 OA
ATOM     22  H   UNL     1      -7.229   2.157 -33.985  1.00  0.00     0.293 HD
ENDBRANCH   4  21
TORSDOF 6
ENDMDL
MODEL 5
REMARK VINA RESULT:      -6.9      1.710      2.933
REMARK SMILES Oc1cc(O)cc(-c2c(O)cc(O)cc2O)c1
REMARK SMILES IDX 17 1 7 2 6 3 4 4 3 5 2 6 8 7 15 8 9 9 14 10 11 11 12 12
REMARK SMILES IDX 16 13 10 15 13 17 1 19 5 21
REMARK H PARENT 16 14 10 16 13 18 1 20 5 22
ROOT
ATOM      1  C   UNL     1      -6.696  -2.661 -28.669  1.00  0.00     0.055 A 
ATOM      2  C   UNL     1      -6.173  -1.587 -29.410  1.00  0.00    -0.004 A 
ATOM      3  C   UNL     1      -6.840  -1.200 -30.585  1.00  0.00     0.055 A 
ATOM      4  C   UNL     1      -7.985  -1.878 -30.998  1.00  0.00     0.119 A 
ATOM      5  C   UNL     1      -8.490  -2.946 -30.267  1.00  0.00     0.092 A 
ATOM      6  C   UNL     1      -7.838  -3.329 -29.102  1.00  0.00     0.119 A 
ENDROOT
BRANCH   2   7
ATOM      7  C   UNL     1      -4.949  -0.893 -28.972  1.00  0.00     0.066 A 
ATOM      8  C   UNL     1      -3.694  -1.155 -29.558  1.00  0.00     0.130 A 
ATOM      9  C   UNL     1      -4.983   0.064 -27.936  1.00  0.00     0.130 A 
ATOM     10  C   UNL     1      -2.532  -0.511 -29.127  1.00  0.00     0.093 A 
ATOM     11  C   UNL     1      -3.828   0.716 -27.501  1.00  0.00     0.093 A 
ATOM     12  C   UNL     1      -2.612   0.419 -28.100  1.00  0.00     0.122 A 
BRANCH   8  13
ATOM     13  O   UNL     1      -3.525  -2.039 -30.593  1.00  0.00    -0.507 OA
ATOM     14  H   UNL     1      -3.864  -1.633 -31.411  1.00  0.00     0.293 HD
ENDBRANCH   8  13
BRANCH   9  15
ATOM     15  O   UNL     1      -6.182   0.360 -27.337  1.00  0.00    -0.507 OA
ATOM     16  H   UNL     1      -6.279   1.325 -27.291  1.00  0.00     0.293 HD
ENDBRANCH   9  15
BRANCH  12  17
ATOM     17  O   UNL     1      -1.504   1.074 -27.648  1.00  0.00    -0.508 OA
ATOM     18  H   UNL     1      -1.391   0.875 -26.703  1.00  0.00     0.293 HD
ENDBRANCH  12  17
ENDBRANCH   2   7
BRANCH   6  19
ATOM     19  O   UNL     1      -8.289  -4.370 -28.346  1.00  0.00    -0.508 OA
ATOM     20  H   UNL     1      -7.832  -4.349 -27.488  1.00  0.00     0.293 HD
ENDBRANCH   6  19
BRANCH   4  21
ATOM     21  O   UNL     1      -8.650  -1.517 -32.134  1.00  0.00    -0.508 OA
ATOM     22  H   UNL     1      -9.591  -1.407 -31.918  1.00  0.00     0.293 HD
ENDBRANCH   4  21
TORSDOF 6
ENDMDL
MODEL 6
REMARK VINA RESULT:      -6.9      1.698      2.226
REMARK SMILES Oc1cc(O)cc(-c2c(O)cc(O)cc2O)c1
REMARK SMILES IDX 17 1 7 2 6 3 4 4 3 5 2 6 8 7 15 8 9 9 14 10 11 11 12 12
REMARK SMILES IDX 16 13 10 15 13 17 1 19 5 21
REMARK H PARENT 16 14 10 16 13 18 1 20 5 22
ROOT
ATOM      1  C   UNL     1      -6.835  -1.149 -30.550  1.00  0.00     0.055 A 
ATOM      2  C   UNL     1      -6.145  -1.563 -29.397  1.00  0.00    -0.004 A 
ATOM      3  C   UNL     1      -6.660  -2.644 -28.663  1.00  0.00     0.055 A 
ATOM      4  C   UNL     1      -7.832  -3.278 -29.074  1.00  0.00     0.119 A 
ATOM      5  C   UNL     1      -8.514  -2.857 -30.209  1.00  0.00     0.092 A 
ATOM      6  C   UNL     1      -8.006  -1.792 -30.941  1.00  0.00     0.119 A 
ENDROOT
BRANCH   2   7
ATOM      7  C   UNL     1      -4.919  -0.869 -28.962  1.00  0.00     0.066 A 
ATOM      8  C   UNL     1      -3.669  -1.121 -29.561  1.00  0.00     0.130 A 
ATOM      9  C   UNL     1      -4.948   0.077 -27.917  1.00  0.00     0.130 A 
ATOM     10  C   UNL     1      -2.506  -0.477 -29.134  1.00  0.00     0.093 A 
ATOM     11  C   UNL     1      -3.792   0.729 -27.485  1.00  0.00     0.093 A 
ATOM     12  C   UNL     1      -2.579   0.443 -28.097  1.00  0.00     0.122 A 
BRANCH   8  13
ATOM     13  O   UNL     1      -3.505  -1.993 -30.608  1.00  0.00    -0.507 OA
ATOM     14  H   UNL     1      -4.179  -1.802 -31.284  1.00  0.00     0.293 HD
ENDBRANCH   8  13
BRANCH   9  15
ATOM     15  O   UNL     1      -6.143   0.363 -27.304  1.00  0.00    -0.507 OA
ATOM     16  H   UNL     1      -6.639  -0.463 -27.184  1.00  0.00     0.293 HD
ENDBRANCH   9  15
BRANCH  12  17
ATOM     17  O   UNL     1      -1.470   1.097 -27.647  1.00  0.00    -0.508 OA
ATOM     18  H   UNL     1      -0.752   0.965 -28.289  1.00  0.00     0.293 HD
ENDBRANCH  12  17
ENDBRANCH   2   7
BRANCH   6  19
ATOM     19  O   UNL     1      -8.635  -1.338 -32.063  1.00  0.00    -0.508 OA
ATOM     20  H   UNL     1      -8.246  -1.781 -32.836  1.00  0.00     0.293 HD
ENDBRANCH   6  19
BRANCH   4  21
ATOM     21  O   UNL     1      -8.348  -4.331 -28.378  1.00  0.00    -0.508 OA
ATOM     22  H   UNL     1      -8.791  -3.988 -27.584  1.00  0.00     0.293 HD
ENDBRANCH   4  21
TORSDOF 6
ENDMDL
MODEL 7
REMARK VINA RESULT:      -6.5      3.780      5.660
REMARK SMILES Oc1cc(O)cc(-c2c(O)cc(O)cc2O)c1
REMARK SMILES IDX 17 1 7 2 6 3 4 4 3 5 2 6 8 7 15 8 9 9 14 10 11 11 12 12
REMARK SMILES IDX 16 13 10 15 13 17 1 19 5 21
REMARK H PARENT 16 14 10 16 13 18 1 20 5 22
ROOT
ATOM      1  C   UNL     1     -10.012  -1.066 -31.903  1.00  0.00     0.055 A 
ATOM      2  C   UNL     1      -9.001  -1.332 -30.964  1.00  0.00    -0.004 A 
ATOM      3  C   UNL     1      -7.758  -0.695 -31.122  1.00  0.00     0.055 A 
ATOM      4  C   UNL     1      -7.545   0.172 -32.194  1.00  0.00     0.119 A 
ATOM      5  C   UNL     1      -8.545   0.420 -33.125  1.00  0.00     0.092 A 
ATOM      6  C   UNL     1      -9.776  -0.203 -32.970  1.00  0.00     0.119 A 
ENDROOT
BRANCH   2   7
ATOM      7  C   UNL     1      -9.234  -2.266 -29.848  1.00  0.00     0.066 A 
ATOM      8  C   UNL     1      -8.934  -3.639 -29.951  1.00  0.00     0.130 A 
ATOM      9  C   UNL     1      -9.778  -1.821 -28.626  1.00  0.00     0.130 A 
ATOM     10  C   UNL     1      -9.175  -4.526 -28.900  1.00  0.00     0.093 A 
ATOM     11  C   UNL     1     -10.019  -2.699 -27.567  1.00  0.00     0.093 A 
ATOM     12  C   UNL     1      -9.717  -4.045 -27.716  1.00  0.00     0.122 A 
BRANCH   8  13
ATOM     13  O   UNL     1      -8.373  -4.198 -31.072  1.00  0.00    -0.507 OA
ATOM     14  H   UNL     1      -9.004  -4.833 -31.456  1.00  0.00     0.293 HD
ENDBRANCH   8  13
BRANCH   9  15
ATOM     15  O   UNL     1     -10.082  -0.492 -28.471  1.00  0.00    -0.507 OA
ATOM     16  H   UNL     1      -9.581   0.023 -29.125  1.00  0.00     0.293 HD
ENDBRANCH   9  15
BRANCH  12  17
ATOM     17  O   UNL     1      -9.968  -4.874 -26.662  1.00  0.00    -0.508 OA
ATOM     18  H   UNL     1     -10.800  -4.596 -26.242  1.00  0.00     0.293 HD
ENDBRANCH  12  17
ENDBRANCH   2   7
BRANCH   6  19
ATOM     19  O   UNL     1     -10.794   0.006 -33.854  1.00  0.00    -0.508 OA
ATOM     20  H   UNL     1     -11.057  -0.851 -34.229  1.00  0.00     0.293 HD
ENDBRANCH   6  19
BRANCH   4  21
ATOM     21  O   UNL     1      -6.348   0.803 -32.365  1.00  0.00    -0.508 OA
ATOM     22  H   UNL     1      -6.462   1.506 -33.027  1.00  0.00     0.293 HD
ENDBRANCH   4  21
TORSDOF 6
ENDMDL
MODEL 8
REMARK VINA RESULT:      -6.5      3.795      5.635
REMARK SMILES Oc1cc(O)cc(-c2c(O)cc(O)cc2O)c1
REMARK SMILES IDX 17 1 7 2 6 3 4 4 3 5 2 6 8 7 15 8 9 9 14 10 11 11 12 12
REMARK SMILES IDX 16 13 10 15 13 17 1 19 5 21
REMARK H PARENT 16 14 10 16 13 18 1 20 5 22
ROOT
ATOM      1  C   UNL     1      -7.765  -0.760 -31.166  1.00  0.00     0.055 A 
ATOM      2  C   UNL     1      -9.002  -1.408 -31.009  1.00  0.00    -0.004 A 
ATOM      3  C   UNL     1     -10.014  -1.151 -31.949  1.00  0.00     0.055 A 
ATOM      4  C   UNL     1      -9.785  -0.269 -33.004  1.00  0.00     0.119 A 
ATOM      5  C   UNL     1      -8.563   0.376 -33.147  1.00  0.00     0.092 A 
ATOM      6  C   UNL     1      -7.558   0.122 -32.223  1.00  0.00     0.119 A 
ENDROOT
BRANCH   2   7
ATOM      7  C   UNL     1      -9.237  -2.322 -29.876  1.00  0.00     0.066 A 
ATOM      8  C   UNL     1      -8.926  -3.695 -29.951  1.00  0.00     0.130 A 
ATOM      9  C   UNL     1      -9.792  -1.857 -28.667  1.00  0.00     0.130 A 
ATOM     10  C   UNL     1      -9.167  -4.562 -28.884  1.00  0.00     0.093 A 
ATOM     11  C   UNL     1     -10.034  -2.716 -27.593  1.00  0.00     0.093 A 
ATOM     12  C   UNL     1      -9.721  -4.063 -27.713  1.00  0.00     0.122 A 
BRANCH   8  13
ATOM     13  O   UNL     1      -8.353  -4.271 -31.056  1.00  0.00    -0.507 OA
ATOM     14  H   UNL     1      -8.026  -3.566 -31.644  1.00  0.00     0.293 HD
ENDBRANCH   8  13
BRANCH   9  15
ATOM     15  O   UNL     1     -10.107  -0.528 -28.541  1.00  0.00    -0.507 OA
ATOM     16  H   UNL     1      -9.928  -0.081 -29.384  1.00  0.00     0.293 HD
ENDBRANCH   9  15
BRANCH  12  17
ATOM     17  O   UNL     1      -9.973  -4.872 -26.645  1.00  0.00    -0.508 OA
ATOM     18  H   UNL     1     -10.915  -5.113 -26.655  1.00  0.00     0.293 HD
ENDBRANCH  12  17
ENDBRANCH   2   7
BRANCH   6  19
ATOM     19  O   UNL     1      -6.339   0.728 -32.315  1.00  0.00    -0.508 OA
ATOM     20  H   UNL     1      -6.236   1.077 -33.216  1.00  0.00     0.293 HD
ENDBRANCH   6  19
BRANCH   4  21
ATOM     21  O   UNL     1     -10.752  -0.008 -33.930  1.00  0.00    -0.508 OA
ATOM     22  H   UNL     1     -11.032   0.917 -33.831  1.00  0.00     0.293 HD
ENDBRANCH   4  21
TORSDOF 6
ENDMDL
MODEL 9
REMARK VINA RESULT:      -6.5      3.771      5.951
REMARK SMILES Oc1cc(O)cc(-c2c(O)cc(O)cc2O)c1
REMARK SMILES IDX 17 1 7 2 6 3 4 4 3 5 2 6 8 7 15 8 9 9 14 10 11 11 12 12
REMARK SMILES IDX 16 13 10 15 13 17 1 19 5 21
REMARK H PARENT 16 14 10 16 13 18 1 20 5 22
ROOT
ATOM      1  C   UNL     1      -7.755  -0.740 -31.140  1.00  0.00     0.055 A 
ATOM      2  C   UNL     1      -9.004  -1.369 -30.994  1.00  0.00    -0.004 A 
ATOM      3  C   UNL     1     -10.001  -1.103 -31.948  1.00  0.00     0.055 A 
ATOM      4  C   UNL     1      -9.746  -0.231 -33.006  1.00  0.00     0.119 A 
ATOM      5  C   UNL     1      -8.513   0.395 -33.137  1.00  0.00     0.092 A 
ATOM      6  C   UNL     1      -7.523   0.132 -32.199  1.00  0.00     0.119 A 
ENDROOT
BRANCH   2   7
ATOM      7  C   UNL     1      -9.266  -2.272 -29.859  1.00  0.00     0.066 A 
ATOM      8  C   UNL     1      -9.810  -1.806 -28.646  1.00  0.00     0.130 A 
ATOM      9  C   UNL     1      -8.973  -3.649 -29.941  1.00  0.00     0.130 A 
ATOM     10  C   UNL     1     -10.038  -2.660 -27.565  1.00  0.00     0.093 A 
ATOM     11  C   UNL     1      -9.201  -4.513 -28.868  1.00  0.00     0.093 A 
ATOM     12  C   UNL     1      -9.730  -4.008 -27.687  1.00  0.00     0.122 A 
BRANCH   8  13
ATOM     13  O   UNL     1     -10.169  -0.497 -28.443  1.00  0.00    -0.507 OA
ATOM     14  H   UNL     1     -11.002  -0.322 -28.916  1.00  0.00     0.293 HD
ENDBRANCH   8  13
BRANCH   9  15
ATOM     15  O   UNL     1      -8.448  -4.155 -31.103  1.00  0.00    -0.507 OA
ATOM     16  H   UNL     1      -9.091  -4.028 -31.820  1.00  0.00     0.293 HD
ENDBRANCH   9  15
BRANCH  12  17
ATOM     17  O   UNL     1      -9.937  -4.880 -26.660  1.00  0.00    -0.508 OA
ATOM     18  H   UNL     1     -10.196  -4.373 -25.871  1.00  0.00     0.293 HD
ENDBRANCH  12  17
ENDBRANCH   2   7
BRANCH   6  19
ATOM     19  O   UNL     1      -6.294   0.719 -32.281  1.00  0.00    -0.508 OA
ATOM     20  H   UNL     1      -6.341   1.593 -31.859  1.00  0.00     0.293 HD
ENDBRANCH   6  19
BRANCH   4  21
ATOM     21  O   UNL     1     -10.697   0.039 -33.945  1.00  0.00    -0.508 OA
ATOM     22  H   UNL     1     -10.973  -0.800 -34.354  1.00  0.00     0.293 HD
ENDBRANCH   4  21
TORSDOF 6
ENDMDL
MODEL 10
REMARK VINA RESULT:      -6.5      1.414      5.845
REMARK SMILES Oc1cc(O)cc(-c2c(O)cc(O)cc2O)c1
REMARK SMILES IDX 17 1 7 2 6 3 4 4 3 5 2 6 8 7 15 8 9 9 14 10 11 11 12 12
REMARK SMILES IDX 16 13 10 15 13 17 1 19 5 21
REMARK H PARENT 16 14 10 16 13 18 1 20 5 22
ROOT
ATOM      1  C   UNL     1      -6.045   0.611 -29.399  1.00  0.00     0.055 A 
ATOM      2  C   UNL     1      -6.045   0.305 -30.771  1.00  0.00    -0.004 A 
ATOM      3  C   UNL     1      -4.809   0.135 -31.417  1.00  0.00     0.055 A 
ATOM      4  C   UNL     1      -3.619   0.278 -30.705  1.00  0.00     0.119 A 
ATOM      5  C   UNL     1      -3.626   0.592 -29.351  1.00  0.00     0.092 A 
ATOM      6  C   UNL     1      -4.846   0.755 -28.707  1.00  0.00     0.119 A 
ENDROOT
BRANCH   2   7
ATOM      7  C   UNL     1      -7.311   0.178 -31.515  1.00  0.00     0.066 A 
ATOM      8  C   UNL     1      -8.013  -1.042 -31.590  1.00  0.00     0.130 A 
ATOM      9  C   UNL     1      -7.871   1.279 -32.194  1.00  0.00     0.130 A 
ATOM     10  C   UNL     1      -9.201  -1.164 -32.312  1.00  0.00     0.093 A 
ATOM     11  C   UNL     1      -9.061   1.169 -32.916  1.00  0.00     0.093 A 
ATOM     12  C   UNL     1      -9.714  -0.055 -32.970  1.00  0.00     0.122 A 
BRANCH   8  13
ATOM     13  O   UNL     1      -7.595  -2.182 -30.951  1.00  0.00    -0.507 OA
ATOM     14  H   UNL     1      -8.207  -2.908 -31.170  1.00  0.00     0.293 HD
ENDBRANCH   8  13
BRANCH   9  15
ATOM     15  O   UNL     1      -7.230   2.492 -32.148  1.00  0.00    -0.507 OA
ATOM     16  H   UNL     1      -7.079   2.802 -33.056  1.00  0.00     0.293 HD
ENDBRANCH   9  15
BRANCH  12  17
ATOM     17  O   UNL     1     -10.872  -0.127 -33.687  1.00  0.00    -0.508 OA
ATOM     18  H   UNL     1     -11.602  -0.327 -33.076  1.00  0.00     0.293 HD
ENDBRANCH  12  17
ENDBRANCH   2   7
BRANCH   6  19
ATOM     19  O   UNL     1      -4.911   1.064 -27.380  1.00  0.00    -0.508 OA
ATOM     20  H   UNL     1      -5.800   1.406 -27.187  1.00  0.00     0.293 HD
ENDBRANCH   6  19
BRANCH   4  21
ATOM     21  O   UNL     1      -2.408   0.114 -31.311  1.00  0.00    -0.508 OA
ATOM     22  H   UNL     1      -2.542  -0.376 -32.140  1.00  0.00     0.293 HD
ENDBRANCH   4  21
TORSDOF 6
ENDMDL
