MODEL 1
REMARK VINA RESULT:      -8.6      0.000      0.000
REMARK SMILES OC[C@H]1O[C@@H](Oc2cc(O)cc(/C=C/c3ccc(O)c(O)c3)c2)[C@H](O)[C@@H](O)[C@@H]1O
REMARK SMILES IDX 12 1 11 2 9 3 8 4 7 5 23 6 13 7 14 8 15 9 16 10 17 11 18 12
REMARK SMILES IDX 22 13 20 14 19 15 21 17 10 19 6 21 5 22 24 23 4 24 26 25
REMARK SMILES IDX 3 26 28 27 25 28 27 30 2 32 1 33 29 35
REMARK H PARENT 19 16 21 18 10 20 25 29 27 31 1 34 29 36
ROOT
ATOM      1  C   UNL     1      -9.182  -0.700 -31.610  1.00  0.00    -0.018 A 
ATOM      2  C   UNL     1      -9.969   0.264 -32.248  1.00  0.00     0.054 A 
ATOM      3  C   UNL     1      -9.358   1.361 -32.849  1.00  0.00     0.119 A 
ATOM      4  C   UNL     1      -7.975   1.518 -32.834  1.00  0.00     0.092 A 
ATOM      5  C   UNL     1      -7.180   0.562 -32.206  1.00  0.00     0.127 A 
ATOM      6  C   UNL     1      -7.789  -0.548 -31.608  1.00  0.00     0.055 A 
ENDROOT
BRANCH   1   7
ATOM      7  C   UNL     1      -9.769  -1.898 -30.995  1.00  0.00     0.009 C 
ATOM      8  C   UNL     1      -9.255  -2.500 -29.910  1.00  0.00     0.009 C 
BRANCH   8   9
ATOM      9  C   UNL     1      -9.835  -3.706 -29.305  1.00  0.00    -0.022 A 
ATOM     10  C   UNL     1     -10.386  -4.689 -30.146  1.00  0.00     0.012 A 
ATOM     11  C   UNL     1     -10.925  -5.867 -29.619  1.00  0.00     0.051 A 
ATOM     12  C   UNL     1     -10.901  -6.066 -28.245  1.00  0.00     0.157 A 
ATOM     13  C   UNL     1      -9.806  -3.931 -27.922  1.00  0.00     0.058 A 
ATOM     14  C   UNL     1     -10.341  -5.105 -27.407  1.00  0.00     0.157 A 
BRANCH  12  15
ATOM     15  O   UNL     1     -11.410  -7.195 -27.667  1.00  0.00    -0.504 OA
ATOM     16  H   UNL     1     -12.371  -7.207 -27.822  1.00  0.00     0.293 HD
ENDBRANCH  12  15
BRANCH  14  17
ATOM     17  O   UNL     1     -10.312  -5.313 -26.057  1.00  0.00    -0.504 OA
ATOM     18  H   UNL     1      -9.501  -4.859 -25.757  1.00  0.00     0.293 HD
ENDBRANCH  14  17
ENDBRANCH   8   9
ENDBRANCH   1   7
BRANCH   3  19
ATOM     19  O   UNL     1     -10.094   2.320 -33.485  1.00  0.00    -0.508 OA
ATOM     20  H   UNL     1     -10.980   2.348 -33.087  1.00  0.00     0.293 HD
ENDBRANCH   3  19
BRANCH   5  21
ATOM     21  O   UNL     1      -5.815   0.576 -32.117  1.00  0.00    -0.462 OA
BRANCH  21  22
ATOM     22  C   UNL     1      -5.214   0.105 -30.902  1.00  0.00     0.339 C 
ATOM     23  C   UNL     1      -3.691   0.342 -31.028  1.00  0.00     0.214 C 
ATOM     24  O   UNL     1      -5.736   0.835 -29.783  1.00  0.00    -0.332 OA
ATOM     25  C   UNL     1      -2.989   0.056 -29.700  1.00  0.00     0.180 C 
ATOM     26  C   UNL     1      -5.167   0.425 -28.537  1.00  0.00     0.179 C 
ATOM     27  C   UNL     1      -3.671   0.765 -28.527  1.00  0.00     0.177 C 
BRANCH  23  28
ATOM     28  O   UNL     1      -3.107  -0.496 -32.038  1.00  0.00    -0.384 OA
ATOM     29  H   UNL     1      -2.733  -1.272 -31.579  1.00  0.00     0.211 HD
ENDBRANCH  23  28
BRANCH  25  30
ATOM     30  O   UNL     1      -1.608   0.459 -29.768  1.00  0.00    -0.387 OA
ATOM     31  H   UNL     1      -1.570   1.434 -29.737  1.00  0.00     0.211 HD
ENDBRANCH  25  30
BRANCH  26  32
ATOM     32  C   UNL     1      -5.905   1.132 -27.392  1.00  0.00     0.191 C 
BRANCH  32  33
ATOM     33  O   UNL     1      -5.690   0.488 -26.140  1.00  0.00    -0.394 OA
ATOM     34  H   UNL     1      -5.624  -0.473 -26.319  1.00  0.00     0.210 HD
ENDBRANCH  32  33
ENDBRANCH  26  32
BRANCH  27  35
ATOM     35  O   UNL     1      -3.053   0.371 -27.298  1.00  0.00    -0.387 OA
ATOM     36  H   UNL     1      -3.749   0.423 -26.610  1.00  0.00     0.211 HD
ENDBRANCH  27  35
ENDBRANCH  21  22
ENDBRANCH   5  21
TORSDOF 12
ENDMDL
MODEL 2
REMARK VINA RESULT:      -8.6      3.287      8.198
REMARK SMILES OC[C@H]1O[C@@H](Oc2cc(O)cc(/C=C/c3ccc(O)c(O)c3)c2)[C@H](O)[C@@H](O)[C@@H]1O
REMARK SMILES IDX 12 1 11 2 9 3 8 4 7 5 23 6 13 7 14 8 15 9 16 10 17 11 18 12
REMARK SMILES IDX 22 13 20 14 19 15 21 17 10 19 6 21 5 22 24 23 4 24 26 25
REMARK SMILES IDX 3 26 28 27 25 28 27 30 2 32 1 33 29 35
REMARK H PARENT 19 16 21 18 10 20 25 29 27 31 1 34 29 36
ROOT
ATOM      1  C   UNL     1      -8.774  -3.855 -28.909  1.00  0.00    -0.018 A 
ATOM      2  C   UNL     1      -9.403  -4.694 -29.835  1.00  0.00     0.054 A 
ATOM      3  C   UNL     1     -10.627  -5.274 -29.516  1.00  0.00     0.119 A 
ATOM      4  C   UNL     1     -11.246  -5.032 -28.292  1.00  0.00     0.092 A 
ATOM      5  C   UNL     1     -10.632  -4.195 -27.363  1.00  0.00     0.127 A 
ATOM      6  C   UNL     1      -9.406  -3.601 -27.684  1.00  0.00     0.055 A 
ENDROOT
BRANCH   1   7
ATOM      7  C   UNL     1      -7.502  -3.184 -29.208  1.00  0.00     0.009 C 
ATOM      8  C   UNL     1      -6.790  -2.508 -28.291  1.00  0.00     0.009 C 
BRANCH   8   9
ATOM      9  C   UNL     1      -5.525  -1.825 -28.596  1.00  0.00    -0.022 A 
ATOM     10  C   UNL     1      -4.780  -1.273 -27.539  1.00  0.00     0.012 A 
ATOM     11  C   UNL     1      -3.557  -0.638 -27.776  1.00  0.00     0.051 A 
ATOM     12  C   UNL     1      -3.073  -0.567 -29.075  1.00  0.00     0.157 A 
ATOM     13  C   UNL     1      -5.013  -1.757 -29.899  1.00  0.00     0.058 A 
ATOM     14  C   UNL     1      -3.797  -1.126 -30.125  1.00  0.00     0.157 A 
BRANCH  12  15
ATOM     15  O   UNL     1      -1.884   0.039 -29.374  1.00  0.00    -0.504 OA
ATOM     16  H   UNL     1      -1.694   0.690 -28.677  1.00  0.00     0.293 HD
ENDBRANCH  12  15
BRANCH  14  17
ATOM     17  O   UNL     1      -3.308  -1.060 -31.399  1.00  0.00    -0.504 OA
ATOM     18  H   UNL     1      -3.214  -0.104 -31.576  1.00  0.00     0.293 HD
ENDBRANCH  14  17
ENDBRANCH   8   9
ENDBRANCH   1   7
BRANCH   3  19
ATOM     19  O   UNL     1     -11.272  -6.095 -30.397  1.00  0.00    -0.508 OA
ATOM     20  H   UNL     1     -10.918  -5.937 -31.287  1.00  0.00     0.293 HD
ENDBRANCH   3  19
BRANCH   5  21
ATOM     21  O   UNL     1     -11.120  -3.859 -26.130  1.00  0.00    -0.462 OA
BRANCH  21  22
ATOM     22  C   UNL     1     -10.247  -3.168 -25.226  1.00  0.00     0.339 C 
ATOM     23  C   UNL     1     -11.009  -1.918 -24.727  1.00  0.00     0.214 C 
ATOM     24  O   UNL     1      -9.915  -4.018 -24.119  1.00  0.00    -0.332 OA
ATOM     25  C   UNL     1     -10.234  -1.227 -23.603  1.00  0.00     0.180 C 
ATOM     26  C   UNL     1      -9.057  -3.385 -23.168  1.00  0.00     0.179 C 
ATOM     27  C   UNL     1      -9.802  -2.213 -22.515  1.00  0.00     0.177 C 
BRANCH  23  28
ATOM     28  O   UNL     1     -11.217  -0.968 -25.783  1.00  0.00    -0.384 OA
ATOM     29  H   UNL     1     -10.428  -1.004 -26.354  1.00  0.00     0.211 HD
ENDBRANCH  23  28
BRANCH  25  30
ATOM     30  O   UNL     1     -11.033  -0.183 -23.015  1.00  0.00    -0.387 OA
ATOM     31  H   UNL     1     -10.434   0.519 -22.695  1.00  0.00     0.211 HD
ENDBRANCH  25  30
BRANCH  26  32
ATOM     32  C   UNL     1      -8.620  -4.419 -22.121  1.00  0.00     0.191 C 
BRANCH  32  33
ATOM     33  O   UNL     1      -9.160  -4.137 -20.834  1.00  0.00    -0.394 OA
ATOM     34  H   UNL     1      -9.640  -4.940 -20.542  1.00  0.00     0.210 HD
ENDBRANCH  32  33
ENDBRANCH  26  32
BRANCH  27  35
ATOM     35  O   UNL     1      -8.981  -1.542 -21.554  1.00  0.00    -0.387 OA
ATOM     36  H   UNL     1      -8.430  -2.234 -21.131  1.00  0.00     0.211 HD
ENDBRANCH  27  35
ENDBRANCH  21  22
ENDBRANCH   5  21
TORSDOF 12
ENDMDL
MODEL 3
REMARK VINA RESULT:      -8.5      1.311      1.506
REMARK SMILES OC[C@H]1O[C@@H](Oc2cc(O)cc(/C=C/c3ccc(O)c(O)c3)c2)[C@H](O)[C@@H](O)[C@@H]1O
REMARK SMILES IDX 12 1 11 2 9 3 8 4 7 5 23 6 13 7 14 8 15 9 16 10 17 11 18 12
REMARK SMILES IDX 22 13 20 14 19 15 21 17 10 19 6 21 5 22 24 23 4 24 26 25
REMARK SMILES IDX 3 26 28 27 25 28 27 30 2 32 1 33 29 35
REMARK H PARENT 19 16 21 18 10 20 25 29 27 31 1 34 29 36
ROOT
ATOM      1  C   UNL     1      -9.352  -0.411 -31.369  1.00  0.00    -0.018 A 
ATOM      2  C   UNL     1     -10.137   0.510 -32.072  1.00  0.00     0.054 A 
ATOM      3  C   UNL     1      -9.525   1.569 -32.735  1.00  0.00     0.119 A 
ATOM      4  C   UNL     1      -8.142   1.732 -32.718  1.00  0.00     0.092 A 
ATOM      5  C   UNL     1      -7.349   0.819 -32.026  1.00  0.00     0.127 A 
ATOM      6  C   UNL     1      -7.960  -0.254 -31.366  1.00  0.00     0.055 A 
ENDROOT
BRANCH   1   7
ATOM      7  C   UNL     1      -9.941  -1.570 -30.686  1.00  0.00     0.009 C 
ATOM      8  C   UNL     1      -9.210  -2.528 -30.091  1.00  0.00     0.009 C 
BRANCH   8   9
ATOM      9  C   UNL     1      -9.800  -3.694 -29.421  1.00  0.00    -0.022 A 
ATOM     10  C   UNL     1     -10.361  -4.716 -30.207  1.00  0.00     0.012 A 
ATOM     11  C   UNL     1     -10.910  -5.859 -29.616  1.00  0.00     0.051 A 
ATOM     12  C   UNL     1     -10.885  -5.983 -28.233  1.00  0.00     0.157 A 
ATOM     13  C   UNL     1      -9.771  -3.844 -28.028  1.00  0.00     0.058 A 
ATOM     14  C   UNL     1     -10.316  -4.983 -27.449  1.00  0.00     0.157 A 
BRANCH  12  15
ATOM     15  O   UNL     1     -11.404  -7.074 -27.594  1.00  0.00    -0.504 OA
ATOM     16  H   UNL     1     -11.724  -6.788 -26.720  1.00  0.00     0.293 HD
ENDBRANCH  12  15
BRANCH  14  17
ATOM     17  O   UNL     1     -10.287  -5.118 -26.090  1.00  0.00    -0.504 OA
ATOM     18  H   UNL     1     -10.345  -4.202 -25.752  1.00  0.00     0.293 HD
ENDBRANCH  14  17
ENDBRANCH   8   9
ENDBRANCH   1   7
BRANCH   3  19
ATOM     19  O   UNL     1     -10.258   2.485 -33.435  1.00  0.00    -0.508 OA
ATOM     20  H   UNL     1     -11.201   2.276 -33.328  1.00  0.00     0.293 HD
ENDBRANCH   3  19
BRANCH   5  21
ATOM     21  O   UNL     1      -5.985   0.844 -31.927  1.00  0.00    -0.462 OA
BRANCH  21  22
ATOM     22  C   UNL     1      -5.407   0.990 -30.622  1.00  0.00     0.339 C 
ATOM     23  C   UNL     1      -4.374  -0.149 -30.455  1.00  0.00     0.214 C 
ATOM     24  O   UNL     1      -4.757   2.264 -30.514  1.00  0.00    -0.332 OA
ATOM     25  C   UNL     1      -3.561   0.044 -29.173  1.00  0.00     0.180 C 
ATOM     26  C   UNL     1      -4.144   2.471 -29.240  1.00  0.00     0.179 C 
ATOM     27  C   UNL     1      -3.001   1.464 -29.059  1.00  0.00     0.177 C 
BRANCH  23  28
ATOM     28  O   UNL     1      -5.009  -1.436 -30.397  1.00  0.00    -0.384 OA
ATOM     29  H   UNL     1      -4.297  -2.100 -30.339  1.00  0.00     0.211 HD
ENDBRANCH  23  28
BRANCH  25  30
ATOM     30  O   UNL     1      -2.480  -0.905 -29.119  1.00  0.00    -0.387 OA
ATOM     31  H   UNL     1      -2.762  -1.720 -29.577  1.00  0.00     0.211 HD
ENDBRANCH  25  30
BRANCH  26  32
ATOM     32  C   UNL     1      -3.632   3.915 -29.158  1.00  0.00     0.191 C 
BRANCH  32  33
ATOM     33  O   UNL     1      -3.360   4.310 -27.817  1.00  0.00    -0.394 OA
ATOM     34  H   UNL     1      -3.839   5.151 -27.663  1.00  0.00     0.210 HD
ENDBRANCH  32  33
ENDBRANCH  26  32
BRANCH  27  35
ATOM     35  O   UNL     1      -2.354   1.628 -27.793  1.00  0.00    -0.387 OA
ATOM     36  H   UNL     1      -2.116   0.729 -27.485  1.00  0.00     0.211 HD
ENDBRANCH  27  35
ENDBRANCH  21  22
ENDBRANCH   5  21
TORSDOF 12
ENDMDL
MODEL 4
REMARK VINA RESULT:      -8.4      2.717      7.981
REMARK SMILES OC[C@H]1O[C@@H](Oc2cc(O)cc(/C=C/c3ccc(O)c(O)c3)c2)[C@H](O)[C@@H](O)[C@@H]1O
REMARK SMILES IDX 12 1 11 2 9 3 8 4 7 5 23 6 13 7 14 8 15 9 16 10 17 11 18 12
REMARK SMILES IDX 22 13 20 14 19 15 21 17 10 19 6 21 5 22 24 23 4 24 26 25
REMARK SMILES IDX 3 26 28 27 25 28 27 30 2 32 1 33 29 35
REMARK H PARENT 19 16 21 18 10 20 25 29 27 31 1 34 29 36
ROOT
ATOM      1  C   UNL     1      -8.728  -3.900 -29.327  1.00  0.00    -0.018 A 
ATOM      2  C   UNL     1      -9.513  -4.592 -30.256  1.00  0.00     0.054 A 
ATOM      3  C   UNL     1     -10.623  -5.310 -29.819  1.00  0.00     0.119 A 
ATOM      4  C   UNL     1     -10.974  -5.350 -28.472  1.00  0.00     0.092 A 
ATOM      5  C   UNL     1     -10.203  -4.661 -27.538  1.00  0.00     0.127 A 
ATOM      6  C   UNL     1      -9.092  -3.930 -27.974  1.00  0.00     0.055 A 
ENDROOT
BRANCH   1   7
ATOM      7  C   UNL     1      -7.571  -3.094 -29.737  1.00  0.00     0.009 C 
ATOM      8  C   UNL     1      -6.661  -2.615 -28.873  1.00  0.00     0.009 C 
BRANCH   8   9
ATOM      9  C   UNL     1      -5.512  -1.797 -29.283  1.00  0.00    -0.022 A 
ATOM     10  C   UNL     1      -4.297  -1.937 -28.590  1.00  0.00     0.012 A 
ATOM     11  C   UNL     1      -3.167  -1.199 -28.961  1.00  0.00     0.051 A 
ATOM     12  C   UNL     1      -3.253  -0.328 -30.039  1.00  0.00     0.157 A 
ATOM     13  C   UNL     1      -5.575  -0.924 -30.378  1.00  0.00     0.058 A 
ATOM     14  C   UNL     1      -4.449  -0.197 -30.741  1.00  0.00     0.157 A 
BRANCH  12  15
ATOM     15  O   UNL     1      -2.187   0.420 -30.453  1.00  0.00    -0.504 OA
ATOM     16  H   UNL     1      -2.476   1.347 -30.519  1.00  0.00     0.293 HD
ENDBRANCH  12  15
BRANCH  14  17
ATOM     17  O   UNL     1      -4.521   0.655 -31.807  1.00  0.00    -0.504 OA
ATOM     18  H   UNL     1      -4.270   0.107 -32.576  1.00  0.00     0.293 HD
ENDBRANCH  14  17
ENDBRANCH   8   9
ENDBRANCH   1   7
BRANCH   3  19
ATOM     19  O   UNL     1     -11.414  -5.993 -30.697  1.00  0.00    -0.508 OA
ATOM     20  H   UNL     1     -12.140  -5.413 -30.981  1.00  0.00     0.293 HD
ENDBRANCH   3  19
BRANCH   5  21
ATOM     21  O   UNL     1     -10.428  -4.602 -26.190  1.00  0.00    -0.462 OA
BRANCH  21  22
ATOM     22  C   UNL     1     -10.488  -3.307 -25.574  1.00  0.00     0.339 C 
ATOM     23  C   UNL     1     -10.773  -3.534 -24.071  1.00  0.00     0.214 C 
ATOM     24  O   UNL     1      -9.237  -2.626 -25.741  1.00  0.00    -0.332 OA
ATOM     25  C   UNL     1     -10.654  -2.221 -23.295  1.00  0.00     0.180 C 
ATOM     26  C   UNL     1      -9.222  -1.332 -25.136  1.00  0.00     0.179 C 
ATOM     27  C   UNL     1      -9.353  -1.482 -23.615  1.00  0.00     0.177 C 
BRANCH  23  28
ATOM     28  O   UNL     1     -12.088  -4.069 -23.855  1.00  0.00    -0.384 OA
ATOM     29  H   UNL     1     -12.679  -3.633 -24.498  1.00  0.00     0.211 HD
ENDBRANCH  23  28
BRANCH  25  30
ATOM     30  O   UNL     1     -10.731  -2.468 -21.879  1.00  0.00    -0.387 OA
ATOM     31  H   UNL     1     -10.350  -1.702 -21.411  1.00  0.00     0.211 HD
ENDBRANCH  25  30
BRANCH  26  32
ATOM     32  C   UNL     1      -7.918  -0.616 -25.514  1.00  0.00     0.191 C 
BRANCH  32  33
ATOM     33  O   UNL     1      -6.914  -0.774 -24.518  1.00  0.00    -0.394 OA
ATOM     34  H   UNL     1      -6.357   0.032 -24.541  1.00  0.00     0.210 HD
ENDBRANCH  32  33
ENDBRANCH  26  32
BRANCH  27  35
ATOM     35  O   UNL     1      -9.346  -0.209 -22.961  1.00  0.00    -0.387 OA
ATOM     36  H   UNL     1      -8.934  -0.352 -22.083  1.00  0.00     0.211 HD
ENDBRANCH  27  35
ENDBRANCH  21  22
ENDBRANCH   5  21
TORSDOF 12
ENDMDL
MODEL 5
REMARK VINA RESULT:      -8.4      3.476      6.620
REMARK SMILES OC[C@H]1O[C@@H](Oc2cc(O)cc(/C=C/c3ccc(O)c(O)c3)c2)[C@H](O)[C@@H](O)[C@@H]1O
REMARK SMILES IDX 12 1 11 2 9 3 8 4 7 5 23 6 13 7 14 8 15 9 16 10 17 11 18 12
REMARK SMILES IDX 22 13 20 14 19 15 21 17 10 19 6 21 5 22 24 23 4 24 26 25
REMARK SMILES IDX 3 26 28 27 25 28 27 30 2 32 1 33 29 35
REMARK H PARENT 19 16 21 18 10 20 25 29 27 31 1 34 29 36
ROOT
ATOM      1  C   UNL     1      -4.628  -0.639 -26.879  1.00  0.00    -0.018 A 
ATOM      2  C   UNL     1      -3.428   0.067 -26.747  1.00  0.00     0.054 A 
ATOM      3  C   UNL     1      -2.734   0.462 -27.888  1.00  0.00     0.119 A 
ATOM      4  C   UNL     1      -3.213   0.172 -29.163  1.00  0.00     0.092 A 
ATOM      5  C   UNL     1      -4.409  -0.527 -29.307  1.00  0.00     0.127 A 
ATOM      6  C   UNL     1      -5.116  -0.916 -28.163  1.00  0.00     0.055 A 
ENDROOT
BRANCH   1   7
ATOM      7  C   UNL     1      -5.423  -1.044 -25.712  1.00  0.00     0.009 C 
ATOM      8  C   UNL     1      -6.391  -0.282 -25.177  1.00  0.00     0.009 C 
BRANCH   8   9
ATOM      9  C   UNL     1      -7.175  -0.682 -24.000  1.00  0.00    -0.022 A 
ATOM     10  C   UNL     1      -8.141   0.205 -23.495  1.00  0.00     0.012 A 
ATOM     11  C   UNL     1      -8.931  -0.143 -22.393  1.00  0.00     0.051 A 
ATOM     12  C   UNL     1      -8.760  -1.389 -21.806  1.00  0.00     0.157 A 
ATOM     13  C   UNL     1      -7.027  -1.942 -23.403  1.00  0.00     0.058 A 
ATOM     14  C   UNL     1      -7.817  -2.280 -22.312  1.00  0.00     0.157 A 
BRANCH  12  15
ATOM     15  O   UNL     1      -9.500  -1.790 -20.728  1.00  0.00    -0.504 OA
ATOM     16  H   UNL     1     -10.321  -1.268 -20.715  1.00  0.00     0.293 HD
ENDBRANCH  12  15
BRANCH  14  17
ATOM     17  O   UNL     1      -7.663  -3.508 -21.734  1.00  0.00    -0.504 OA
ATOM     18  H   UNL     1      -7.131  -4.016 -22.378  1.00  0.00     0.293 HD
ENDBRANCH  14  17
ENDBRANCH   8   9
ENDBRANCH   1   7
BRANCH   3  19
ATOM     19  O   UNL     1      -1.561   1.156 -27.798  1.00  0.00    -0.508 OA
ATOM     20  H   UNL     1      -1.011   0.750 -27.107  1.00  0.00     0.293 HD
ENDBRANCH   3  19
BRANCH   5  21
ATOM     21  O   UNL     1      -5.005  -0.874 -30.488  1.00  0.00    -0.462 OA
BRANCH  21  22
ATOM     22  C   UNL     1      -6.403  -0.588 -30.647  1.00  0.00     0.339 C 
ATOM     23  C   UNL     1      -6.550   0.241 -31.945  1.00  0.00     0.214 C 
ATOM     24  O   UNL     1      -7.144  -1.811 -30.758  1.00  0.00    -0.332 OA
ATOM     25  C   UNL     1      -8.026   0.422 -32.305  1.00  0.00     0.180 C 
ATOM     26  C   UNL     1      -8.546  -1.599 -30.934  1.00  0.00     0.179 C 
ATOM     27  C   UNL     1      -8.787  -0.905 -32.281  1.00  0.00     0.177 C 
BRANCH  23  28
ATOM     28  O   UNL     1      -5.955   1.542 -31.812  1.00  0.00    -0.384 OA
ATOM     29  H   UNL     1      -5.021   1.401 -31.566  1.00  0.00     0.211 HD
ENDBRANCH  23  28
BRANCH  25  30
ATOM     30  O   UNL     1      -8.152   1.026 -33.606  1.00  0.00    -0.387 OA
ATOM     31  H   UNL     1      -9.064   0.887 -33.922  1.00  0.00     0.211 HD
ENDBRANCH  25  30
BRANCH  26  32
ATOM     32  C   UNL     1      -9.270  -2.950 -30.866  1.00  0.00     0.191 C 
BRANCH  32  33
ATOM     33  O   UNL     1      -8.387  -4.042 -31.098  1.00  0.00    -0.394 OA
ATOM     34  H   UNL     1      -7.589  -3.888 -30.551  1.00  0.00     0.210 HD
ENDBRANCH  32  33
ENDBRANCH  26  32
BRANCH  27  35
ATOM     35  O   UNL     1     -10.181  -0.667 -32.505  1.00  0.00    -0.387 OA
ATOM     36  H   UNL     1     -10.275  -0.450 -33.456  1.00  0.00     0.211 HD
ENDBRANCH  27  35
ENDBRANCH  21  22
ENDBRANCH   5  21
TORSDOF 12
ENDMDL
MODEL 6
REMARK VINA RESULT:      -8.3      3.599      9.363
REMARK SMILES OC[C@H]1O[C@@H](Oc2cc(O)cc(/C=C/c3ccc(O)c(O)c3)c2)[C@H](O)[C@@H](O)[C@@H]1O
REMARK SMILES IDX 12 1 11 2 9 3 8 4 7 5 23 6 13 7 14 8 15 9 16 10 17 11 18 12
REMARK SMILES IDX 22 13 20 14 19 15 21 17 10 19 6 21 5 22 24 23 4 24 26 25
REMARK SMILES IDX 3 26 28 27 25 28 27 30 2 32 1 33 29 35
REMARK H PARENT 19 16 21 18 10 20 25 29 27 31 1 34 29 36
ROOT
ATOM      1  C   UNL     1      -7.623  -0.379 -25.222  1.00  0.00    -0.018 A 
ATOM      2  C   UNL     1      -7.704  -0.040 -23.867  1.00  0.00     0.054 A 
ATOM      3  C   UNL     1      -8.851  -0.357 -23.146  1.00  0.00     0.119 A 
ATOM      4  C   UNL     1      -9.924  -1.013 -23.745  1.00  0.00     0.092 A 
ATOM      5  C   UNL     1      -9.853  -1.361 -25.092  1.00  0.00     0.127 A 
ATOM      6  C   UNL     1      -8.697  -1.053 -25.819  1.00  0.00     0.055 A 
ENDROOT
BRANCH   1   7
ATOM      7  C   UNL     1      -6.421  -0.105 -26.020  1.00  0.00     0.009 C 
ATOM      8  C   UNL     1      -5.978  -0.919 -26.992  1.00  0.00     0.009 C 
BRANCH   8   9
ATOM      9  C   UNL     1      -4.767  -0.651 -27.780  1.00  0.00    -0.022 A 
ATOM     10  C   UNL     1      -4.689  -1.145 -29.094  1.00  0.00     0.012 A 
ATOM     11  C   UNL     1      -3.568  -0.892 -29.892  1.00  0.00     0.051 A 
ATOM     12  C   UNL     1      -2.528  -0.131 -29.375  1.00  0.00     0.157 A 
ATOM     13  C   UNL     1      -3.714   0.128 -27.281  1.00  0.00     0.058 A 
ATOM     14  C   UNL     1      -2.606   0.376 -28.081  1.00  0.00     0.157 A 
BRANCH  12  15
ATOM     15  O   UNL     1      -1.406   0.153 -30.103  1.00  0.00    -0.504 OA
ATOM     16  H   UNL     1      -0.701  -0.455 -29.820  1.00  0.00     0.293 HD
ENDBRANCH  12  15
BRANCH  14  17
ATOM     17  O   UNL     1      -1.583   1.133 -27.584  1.00  0.00    -0.504 OA
ATOM     18  H   UNL     1      -0.902   1.115 -28.285  1.00  0.00     0.293 HD
ENDBRANCH  14  17
ENDBRANCH   8   9
ENDBRANCH   1   7
BRANCH   3  19
ATOM     19  O   UNL     1      -8.964  -0.045 -21.822  1.00  0.00    -0.508 OA
ATOM     20  H   UNL     1      -8.398   0.722 -21.633  1.00  0.00     0.293 HD
ENDBRANCH   3  19
BRANCH   5  21
ATOM     21  O   UNL     1     -10.818  -2.011 -25.811  1.00  0.00    -0.462 OA
BRANCH  21  22
ATOM     22  C   UNL     1     -10.684  -3.429 -25.989  1.00  0.00     0.339 C 
ATOM     23  C   UNL     1     -11.970  -4.079 -25.426  1.00  0.00     0.214 C 
ATOM     24  O   UNL     1     -10.547  -3.736 -27.384  1.00  0.00    -0.332 OA
ATOM     25  C   UNL     1     -12.007  -5.573 -25.756  1.00  0.00     0.180 C 
ATOM     26  C   UNL     1     -10.424  -5.137 -27.636  1.00  0.00     0.179 C 
ATOM     27  C   UNL     1     -11.729  -5.840 -27.236  1.00  0.00     0.177 C 
BRANCH  23  28
ATOM     28  O   UNL     1     -12.058  -3.929 -24.001  1.00  0.00    -0.384 OA
ATOM     29  H   UNL     1     -11.190  -3.603 -23.697  1.00  0.00     0.211 HD
ENDBRANCH  23  28
BRANCH  25  30
ATOM     30  O   UNL     1     -13.285  -6.131 -25.398  1.00  0.00    -0.387 OA
ATOM     31  H   UNL     1     -13.637  -5.632 -24.636  1.00  0.00     0.211 HD
ENDBRANCH  25  30
BRANCH  26  32
ATOM     32  C   UNL     1     -10.109  -5.354 -29.123  1.00  0.00     0.191 C 
BRANCH  32  33
ATOM     33  O   UNL     1     -11.240  -5.832 -29.844  1.00  0.00    -0.394 OA
ATOM     34  H   UNL     1     -11.994  -5.249 -29.617  1.00  0.00     0.210 HD
ENDBRANCH  32  33
ENDBRANCH  26  32
BRANCH  27  35
ATOM     35  O   UNL     1     -11.655  -7.251 -27.468  1.00  0.00    -0.387 OA
ATOM     36  H   UNL     1     -11.305  -7.363 -28.376  1.00  0.00     0.211 HD
ENDBRANCH  27  35
ENDBRANCH  21  22
ENDBRANCH   5  21
TORSDOF 12
ENDMDL
MODEL 7
REMARK VINA RESULT:      -8.2      2.329      2.881
REMARK SMILES OC[C@H]1O[C@@H](Oc2cc(O)cc(/C=C/c3ccc(O)c(O)c3)c2)[C@H](O)[C@@H](O)[C@@H]1O
REMARK SMILES IDX 12 1 11 2 9 3 8 4 7 5 23 6 13 7 14 8 15 9 16 10 17 11 18 12
REMARK SMILES IDX 22 13 20 14 19 15 21 17 10 19 6 21 5 22 24 23 4 24 26 25
REMARK SMILES IDX 3 26 28 27 25 28 27 30 2 32 1 33 29 35
REMARK H PARENT 19 16 21 18 10 20 25 29 27 31 1 34 29 36
ROOT
ATOM      1  C   UNL     1      -9.707  -0.495 -30.281  1.00  0.00    -0.018 A 
ATOM      2  C   UNL     1     -10.569  -0.414 -31.380  1.00  0.00     0.054 A 
ATOM      3  C   UNL     1     -10.062  -0.059 -32.626  1.00  0.00     0.119 A 
ATOM      4  C   UNL     1      -8.709   0.214 -32.806  1.00  0.00     0.092 A 
ATOM      5  C   UNL     1      -7.839   0.132 -31.721  1.00  0.00     0.127 A 
ATOM      6  C   UNL     1      -8.343  -0.235 -30.467  1.00  0.00     0.055 A 
ENDROOT
BRANCH   1   7
ATOM      7  C   UNL     1     -10.180  -0.905 -28.952  1.00  0.00     0.009 C 
ATOM      8  C   UNL     1      -9.737  -2.002 -28.316  1.00  0.00     0.009 C 
BRANCH   8   9
ATOM      9  C   UNL     1     -10.222  -2.419 -26.993  1.00  0.00    -0.022 A 
ATOM     10  C   UNL     1     -10.432  -3.787 -26.747  1.00  0.00     0.012 A 
ATOM     11  C   UNL     1     -10.866  -4.234 -25.494  1.00  0.00     0.051 A 
ATOM     12  C   UNL     1     -11.079  -3.308 -24.483  1.00  0.00     0.157 A 
ATOM     13  C   UNL     1     -10.428  -1.500 -25.955  1.00  0.00     0.058 A 
ATOM     14  C   UNL     1     -10.857  -1.952 -24.714  1.00  0.00     0.157 A 
BRANCH  12  15
ATOM     15  O   UNL     1     -11.502  -3.679 -23.237  1.00  0.00    -0.504 OA
ATOM     16  H   UNL     1     -11.857  -4.583 -23.296  1.00  0.00     0.293 HD
ENDBRANCH  12  15
BRANCH  14  17
ATOM     17  O   UNL     1     -11.059  -1.049 -23.710  1.00  0.00    -0.504 OA
ATOM     18  H   UNL     1     -10.512  -1.379 -22.970  1.00  0.00     0.293 HD
ENDBRANCH  14  17
ENDBRANCH   8   9
ENDBRANCH   1   7
BRANCH   3  19
ATOM     19  O   UNL     1     -10.873   0.026 -33.722  1.00  0.00    -0.508 OA
ATOM     20  H   UNL     1     -10.588   0.781 -34.263  1.00  0.00     0.293 HD
ENDBRANCH   3  19
BRANCH   5  21
ATOM     21  O   UNL     1      -6.491   0.362 -31.745  1.00  0.00    -0.462 OA
BRANCH  21  22
ATOM     22  C   UNL     1      -5.837   0.663 -30.504  1.00  0.00     0.339 C 
ATOM     23  C   UNL     1      -4.558  -0.205 -30.444  1.00  0.00     0.214 C 
ATOM     24  O   UNL     1      -5.490   2.055 -30.459  1.00  0.00    -0.332 OA
ATOM     25  C   UNL     1      -3.690   0.196 -29.249  1.00  0.00     0.180 C 
ATOM     26  C   UNL     1      -4.819   2.422 -29.251  1.00  0.00     0.179 C 
ATOM     27  C   UNL     1      -3.462   1.707 -29.188  1.00  0.00     0.177 C 
BRANCH  23  28
ATOM     28  O   UNL     1      -4.872  -1.601 -30.326  1.00  0.00    -0.384 OA
ATOM     29  H   UNL     1      -5.813  -1.659 -30.074  1.00  0.00     0.211 HD
ENDBRANCH  23  28
BRANCH  25  30
ATOM     30  O   UNL     1      -2.420  -0.480 -29.306  1.00  0.00    -0.387 OA
ATOM     31  H   UNL     1      -1.746   0.096 -28.899  1.00  0.00     0.211 HD
ENDBRANCH  25  30
BRANCH  26  32
ATOM     32  C   UNL     1      -4.646   3.947 -29.217  1.00  0.00     0.191 C 
BRANCH  32  33
ATOM     33  O   UNL     1      -3.423   4.360 -29.818  1.00  0.00    -0.394 OA
ATOM     34  H   UNL     1      -3.645   4.728 -30.698  1.00  0.00     0.210 HD
ENDBRANCH  32  33
ENDBRANCH  26  32
BRANCH  27  35
ATOM     35  O   UNL     1      -2.750   2.042 -27.993  1.00  0.00    -0.387 OA
ATOM     36  H   UNL     1      -3.421   2.111 -27.282  1.00  0.00     0.211 HD
ENDBRANCH  27  35
ENDBRANCH  21  22
ENDBRANCH   5  21
TORSDOF 12
ENDMDL
MODEL 8
REMARK VINA RESULT:      -8.2      1.586      2.059
REMARK SMILES OC[C@H]1O[C@@H](Oc2cc(O)cc(/C=C/c3ccc(O)c(O)c3)c2)[C@H](O)[C@@H](O)[C@@H]1O
REMARK SMILES IDX 12 1 11 2 9 3 8 4 7 5 23 6 13 7 14 8 15 9 16 10 17 11 18 12
REMARK SMILES IDX 22 13 20 14 19 15 21 17 10 19 6 21 5 22 24 23 4 24 26 25
REMARK SMILES IDX 3 26 28 27 25 28 27 30 2 32 1 33 29 35
REMARK H PARENT 19 16 21 18 10 20 25 29 27 31 1 34 29 36
ROOT
ATOM      1  C   UNL     1      -8.697  -0.682 -31.275  1.00  0.00    -0.018 A 
ATOM      2  C   UNL     1      -8.641  -0.480 -32.658  1.00  0.00     0.054 A 
ATOM      3  C   UNL     1      -7.889   0.573 -33.169  1.00  0.00     0.119 A 
ATOM      4  C   UNL     1      -7.183   1.432 -32.330  1.00  0.00     0.092 A 
ATOM      5  C   UNL     1      -7.227   1.239 -30.951  1.00  0.00     0.127 A 
ATOM      6  C   UNL     1      -7.974   0.174 -30.433  1.00  0.00     0.055 A 
ENDROOT
BRANCH   1   7
ATOM      7  C   UNL     1      -9.441  -1.802 -30.684  1.00  0.00     0.009 C 
ATOM      8  C   UNL     1      -8.947  -2.588 -29.713  1.00  0.00     0.009 C 
BRANCH   8   9
ATOM      9  C   UNL     1      -9.687  -3.716 -29.133  1.00  0.00    -0.022 A 
ATOM     10  C   UNL     1     -10.207  -4.700 -29.993  1.00  0.00     0.012 A 
ATOM     11  C   UNL     1     -10.895  -5.808 -29.485  1.00  0.00     0.051 A 
ATOM     12  C   UNL     1     -11.052  -5.935 -28.112  1.00  0.00     0.157 A 
ATOM     13  C   UNL     1      -9.842  -3.870 -27.749  1.00  0.00     0.058 A 
ATOM     14  C   UNL     1     -10.525  -4.973 -27.253  1.00  0.00     0.157 A 
BRANCH  12  15
ATOM     15  O   UNL     1     -11.713  -6.993 -27.552  1.00  0.00    -0.504 OA
ATOM     16  H   UNL     1     -12.071  -7.540 -28.272  1.00  0.00     0.293 HD
ENDBRANCH  12  15
BRANCH  14  17
ATOM     17  O   UNL     1     -10.674  -5.112 -25.903  1.00  0.00    -0.504 OA
ATOM     18  H   UNL     1     -11.496  -5.632 -25.800  1.00  0.00     0.293 HD
ENDBRANCH  14  17
ENDBRANCH   8   9
ENDBRANCH   1   7
BRANCH   3  19
ATOM     19  O   UNL     1      -7.808   0.799 -34.513  1.00  0.00    -0.508 OA
ATOM     20  H   UNL     1      -8.089  -0.005 -34.982  1.00  0.00     0.293 HD
ENDBRANCH   3  19
BRANCH   5  21
ATOM     21  O   UNL     1      -6.583   1.991 -30.008  1.00  0.00    -0.462 OA
BRANCH  21  22
ATOM     22  C   UNL     1      -5.177   1.776 -29.820  1.00  0.00     0.339 C 
ATOM     23  C   UNL     1      -4.633   2.995 -29.038  1.00  0.00     0.214 C 
ATOM     24  O   UNL     1      -4.962   0.573 -29.068  1.00  0.00    -0.332 OA
ATOM     25  C   UNL     1      -3.182   2.760 -28.614  1.00  0.00     0.180 C 
ATOM     26  C   UNL     1      -3.579   0.305 -28.831  1.00  0.00     0.179 C 
ATOM     27  C   UNL     1      -2.997   1.404 -27.931  1.00  0.00     0.177 C 
BRANCH  23  28
ATOM     28  O   UNL     1      -4.685   4.195 -29.825  1.00  0.00    -0.384 OA
ATOM     29  H   UNL     1      -3.774   4.538 -29.877  1.00  0.00     0.211 HD
ENDBRANCH  23  28
BRANCH  25  30
ATOM     30  O   UNL     1      -2.744   3.808 -27.729  1.00  0.00    -0.387 OA
ATOM     31  H   UNL     1      -3.393   4.536 -27.769  1.00  0.00     0.211 HD
ENDBRANCH  25  30
BRANCH  26  32
ATOM     32  C   UNL     1      -3.440  -1.078 -28.180  1.00  0.00     0.191 C 
BRANCH  32  33
ATOM     33  O   UNL     1      -4.383  -1.272 -27.131  1.00  0.00    -0.394 OA
ATOM     34  H   UNL     1      -5.258  -1.410 -27.552  1.00  0.00     0.210 HD
ENDBRANCH  32  33
ENDBRANCH  26  32
BRANCH  27  35
ATOM     35  O   UNL     1      -1.609   1.181 -27.664  1.00  0.00    -0.387 OA
ATOM     36  H   UNL     1      -1.304   0.522 -28.322  1.00  0.00     0.211 HD
ENDBRANCH  27  35
ENDBRANCH  21  22
ENDBRANCH   5  21
TORSDOF 12
ENDMDL
MODEL 9
REMARK VINA RESULT:      -8.2      3.189      8.140
REMARK SMILES OC[C@H]1O[C@@H](Oc2cc(O)cc(/C=C/c3ccc(O)c(O)c3)c2)[C@H](O)[C@@H](O)[C@@H]1O
REMARK SMILES IDX 12 1 11 2 9 3 8 4 7 5 23 6 13 7 14 8 15 9 16 10 17 11 18 12
REMARK SMILES IDX 22 13 20 14 19 15 21 17 10 19 6 21 5 22 24 23 4 24 26 25
REMARK SMILES IDX 3 26 28 27 25 28 27 30 2 32 1 33 29 35
REMARK H PARENT 19 16 21 18 10 20 25 29 27 31 1 34 29 36
ROOT
ATOM      1  C   UNL     1      -8.407  -3.085 -28.318  1.00  0.00    -0.018 A 
ATOM      2  C   UNL     1      -8.821  -4.315 -28.841  1.00  0.00     0.054 A 
ATOM      3  C   UNL     1      -9.968  -4.924 -28.340  1.00  0.00     0.119 A 
ATOM      4  C   UNL     1     -10.719  -4.331 -27.328  1.00  0.00     0.092 A 
ATOM      5  C   UNL     1     -10.320  -3.105 -26.802  1.00  0.00     0.127 A 
ATOM      6  C   UNL     1      -9.173  -2.483 -27.310  1.00  0.00     0.055 A 
ENDROOT
BRANCH   1   7
ATOM      7  C   UNL     1      -7.229  -2.378 -28.836  1.00  0.00     0.009 C 
ATOM      8  C   UNL     1      -6.090  -2.230 -28.141  1.00  0.00     0.009 C 
BRANCH   8   9
ATOM      9  C   UNL     1      -4.917  -1.510 -28.656  1.00  0.00    -0.022 A 
ATOM     10  C   UNL     1      -4.127  -0.770 -27.758  1.00  0.00     0.012 A 
ATOM     11  C   UNL     1      -2.986  -0.090 -28.197  1.00  0.00     0.051 A 
ATOM     12  C   UNL     1      -2.629  -0.162 -29.536  1.00  0.00     0.157 A 
ATOM     13  C   UNL     1      -4.533  -1.584 -30.001  1.00  0.00     0.058 A 
ATOM     14  C   UNL     1      -3.397  -0.907 -30.428  1.00  0.00     0.157 A 
BRANCH  12  15
ATOM     15  O   UNL     1      -1.526   0.478 -30.029  1.00  0.00    -0.504 OA
ATOM     16  H   UNL     1      -1.791   1.377 -30.291  1.00  0.00     0.293 HD
ENDBRANCH  12  15
BRANCH  14  17
ATOM     17  O   UNL     1      -3.033  -0.982 -31.742  1.00  0.00    -0.504 OA
ATOM     18  H   UNL     1      -2.315  -1.645 -31.760  1.00  0.00     0.293 HD
ENDBRANCH  14  17
ENDBRANCH   8   9
ENDBRANCH   1   7
BRANCH   3  19
ATOM     19  O   UNL     1     -10.404  -6.122 -28.829  1.00  0.00    -0.508 OA
ATOM     20  H   UNL     1     -10.713  -5.993 -29.741  1.00  0.00     0.293 HD
ENDBRANCH   3  19
BRANCH   5  21
ATOM     21  O   UNL     1     -10.957  -2.401 -25.817  1.00  0.00    -0.462 OA
BRANCH  21  22
ATOM     22  C   UNL     1     -10.252  -2.174 -24.589  1.00  0.00     0.339 C 
ATOM     23  C   UNL     1     -10.180  -3.531 -23.849  1.00  0.00     0.214 C 
ATOM     24  O   UNL     1      -8.928  -1.693 -24.866  1.00  0.00    -0.332 OA
ATOM     25  C   UNL     1      -9.270  -3.429 -22.624  1.00  0.00     0.180 C 
ATOM     26  C   UNL     1      -8.162  -1.459 -23.683  1.00  0.00     0.179 C 
ATOM     27  C   UNL     1      -7.921  -2.793 -22.963  1.00  0.00     0.177 C 
BRANCH  23  28
ATOM     28  O   UNL     1     -11.478  -3.965 -23.414  1.00  0.00    -0.384 OA
ATOM     29  H   UNL     1     -11.844  -4.520 -24.128  1.00  0.00     0.211 HD
ENDBRANCH  23  28
BRANCH  25  30
ATOM     30  O   UNL     1      -9.056  -4.734 -22.052  1.00  0.00    -0.387 OA
ATOM     31  H   UNL     1      -8.920  -5.370 -22.779  1.00  0.00     0.211 HD
ENDBRANCH  25  30
BRANCH  26  32
ATOM     32  C   UNL     1      -6.837  -0.788 -24.068  1.00  0.00     0.191 C 
BRANCH  32  33
ATOM     33  O   UNL     1      -5.870  -1.732 -24.517  1.00  0.00    -0.394 OA
ATOM     34  H   UNL     1      -4.994  -1.412 -24.215  1.00  0.00     0.210 HD
ENDBRANCH  32  33
ENDBRANCH  26  32
BRANCH  27  35
ATOM     35  O   UNL     1      -7.157  -2.611 -21.767  1.00  0.00    -0.387 OA
ATOM     36  H   UNL     1      -7.607  -1.906 -21.256  1.00  0.00     0.211 HD
ENDBRANCH  27  35
ENDBRANCH  21  22
ENDBRANCH   5  21
TORSDOF 12
ENDMDL
MODEL 10
REMARK VINA RESULT:      -8.0      3.463      6.205
REMARK SMILES OC[C@H]1O[C@@H](Oc2cc(O)cc(/C=C/c3ccc(O)c(O)c3)c2)[C@H](O)[C@@H](O)[C@@H]1O
REMARK SMILES IDX 12 1 11 2 9 3 8 4 7 5 23 6 13 7 14 8 15 9 16 10 17 11 18 12
REMARK SMILES IDX 22 13 20 14 19 15 21 17 10 19 6 21 5 22 24 23 4 24 26 25
REMARK SMILES IDX 3 26 28 27 25 28 27 30 2 32 1 33 29 35
REMARK H PARENT 19 16 21 18 10 20 25 29 27 31 1 34 29 36
ROOT
ATOM      1  C   UNL     1     -10.210  -3.929 -27.790  1.00  0.00    -0.018 A 
ATOM      2  C   UNL     1     -10.949  -4.906 -28.465  1.00  0.00     0.054 A 
ATOM      3  C   UNL     1     -10.631  -5.220 -29.783  1.00  0.00     0.119 A 
ATOM      4  C   UNL     1      -9.584  -4.585 -30.446  1.00  0.00     0.092 A 
ATOM      5  C   UNL     1      -8.836  -3.614 -29.783  1.00  0.00     0.127 A 
ATOM      6  C   UNL     1      -9.147  -3.302 -28.454  1.00  0.00     0.055 A 
ENDROOT
BRANCH   1   7
ATOM      7  C   UNL     1     -10.476  -3.586 -26.386  1.00  0.00     0.009 C 
ATOM      8  C   UNL     1      -9.653  -2.830 -25.642  1.00  0.00     0.009 C 
BRANCH   8   9
ATOM      9  C   UNL     1      -9.913  -2.501 -24.234  1.00  0.00    -0.022 A 
ATOM     10  C   UNL     1      -9.700  -3.488 -23.255  1.00  0.00     0.012 A 
ATOM     11  C   UNL     1      -9.908  -3.213 -21.899  1.00  0.00     0.051 A 
ATOM     12  C   UNL     1     -10.318  -1.942 -21.523  1.00  0.00     0.157 A 
ATOM     13  C   UNL     1     -10.312  -1.219 -23.833  1.00  0.00     0.058 A 
ATOM     14  C   UNL     1     -10.514  -0.954 -22.485  1.00  0.00     0.157 A 
BRANCH  12  15
ATOM     15  O   UNL     1     -10.538  -1.608 -20.215  1.00  0.00    -0.504 OA
ATOM     16  H   UNL     1      -9.741  -1.839 -19.707  1.00  0.00     0.293 HD
ENDBRANCH  12  15
BRANCH  14  17
ATOM     17  O   UNL     1     -10.908   0.298 -22.104  1.00  0.00    -0.504 OA
ATOM     18  H   UNL     1     -11.560   0.566 -22.781  1.00  0.00     0.293 HD
ENDBRANCH  14  17
ENDBRANCH   8   9
ENDBRANCH   1   7
BRANCH   3  19
ATOM     19  O   UNL     1     -11.328  -6.171 -30.472  1.00  0.00    -0.508 OA
ATOM     20  H   UNL     1     -12.126  -5.762 -30.847  1.00  0.00     0.293 HD
ENDBRANCH   3  19
BRANCH   5  21
ATOM     21  O   UNL     1      -7.780  -2.915 -30.298  1.00  0.00    -0.462 OA
BRANCH  21  22
ATOM     22  C   UNL     1      -7.999  -1.550 -30.682  1.00  0.00     0.339 C 
ATOM     23  C   UNL     1      -6.607  -0.911 -30.898  1.00  0.00     0.214 C 
ATOM     24  O   UNL     1      -8.759  -1.500 -31.898  1.00  0.00    -0.332 OA
ATOM     25  C   UNL     1      -6.744   0.486 -31.506  1.00  0.00     0.180 C 
ATOM     26  C   UNL     1      -9.002  -0.165 -32.348  1.00  0.00     0.179 C 
ATOM     27  C   UNL     1      -7.668   0.493 -32.725  1.00  0.00     0.177 C 
BRANCH  23  28
ATOM     28  O   UNL     1      -5.879  -0.799 -29.666  1.00  0.00    -0.384 OA
ATOM     29  H   UNL     1      -6.526  -0.912 -28.944  1.00  0.00     0.211 HD
ENDBRANCH  23  28
BRANCH  25  30
ATOM     30  O   UNL     1      -5.450   0.996 -31.880  1.00  0.00    -0.387 OA
ATOM     31  H   UNL     1      -5.564   1.905 -32.218  1.00  0.00     0.211 HD
ENDBRANCH  25  30
BRANCH  26  32
ATOM     32  C   UNL     1      -9.961  -0.206 -33.546  1.00  0.00     0.191 C 
BRANCH  32  33
ATOM     33  O   UNL     1     -11.317  -0.029 -33.151  1.00  0.00    -0.394 OA
ATOM     34  H   UNL     1     -11.765  -0.893 -33.266  1.00  0.00     0.210 HD
ENDBRANCH  32  33
ENDBRANCH  26  32
BRANCH  27  35
ATOM     35  O   UNL     1      -7.858   1.836 -33.181  1.00  0.00    -0.387 OA
ATOM     36  H   UNL     1      -7.066   2.061 -33.713  1.00  0.00     0.211 HD
ENDBRANCH  27  35
ENDBRANCH  21  22
ENDBRANCH   5  21
TORSDOF 12
ENDMDL
