MODEL 1
REMARK VINA RESULT:      -4.9      0.000      0.000
REMARK SMILES Oc1cccc(O)c1O
REMARK SMILES IDX 4 1 5 2 6 3 8 4 2 5 3 6 7 7 1 9 9 11
REMARK H PARENT 7 8 1 10 9 12
ROOT
ATOM      1  C   UNL     1      -0.641  -9.048 -25.725  1.00  0.00     0.008 A 
ATOM      2  C   UNL     1       0.083 -10.236 -25.568  1.00  0.00     0.050 A 
ATOM      3  C   UNL     1      -0.038 -11.240 -26.523  1.00  0.00     0.161 A 
ATOM      4  C   UNL     1      -0.872 -11.063 -27.623  1.00  0.00     0.200 A 
ATOM      5  C   UNL     1      -1.587  -9.882 -27.775  1.00  0.00     0.161 A 
ATOM      6  C   UNL     1      -1.478  -8.869 -26.832  1.00  0.00     0.050 A 
ENDROOT
BRANCH   3   7
ATOM      7  O   UNL     1       0.643 -12.422 -26.425  1.00  0.00    -0.504 OA
ATOM      8  H   UNL     1       0.010 -13.114 -26.164  1.00  0.00     0.293 HD
ENDBRANCH   3   7
BRANCH   5   9
ATOM      9  O   UNL     1      -2.404  -9.711 -28.855  1.00  0.00    -0.504 OA
ATOM     10  H   UNL     1      -2.526  -8.742 -28.915  1.00  0.00     0.293 HD
ENDBRANCH   5   9
BRANCH   4  11
ATOM     11  O   UNL     1      -0.997 -12.046 -28.566  1.00  0.00    -0.502 OA
ATOM     12  H   UNL     1      -1.843 -11.838 -29.014  1.00  0.00     0.293 HD
ENDBRANCH   4  11
TORSDOF 3
ENDMDL
MODEL 2
REMARK VINA RESULT:      -4.9      1.755      2.455
REMARK SMILES Oc1cccc(O)c1O
REMARK SMILES IDX 4 1 5 2 6 3 8 4 2 5 3 6 7 7 1 9 9 11
REMARK H PARENT 7 8 1 10 9 12
ROOT
ATOM      1  C   UNL     1      -3.138  -9.357 -27.606  1.00  0.00     0.008 A 
ATOM      2  C   UNL     1      -2.837 -10.722 -27.684  1.00  0.00     0.050 A 
ATOM      3  C   UNL     1      -1.508 -11.132 -27.634  1.00  0.00     0.161 A 
ATOM      4  C   UNL     1      -0.491 -10.191 -27.507  1.00  0.00     0.200 A 
ATOM      5  C   UNL     1      -0.794  -8.838 -27.428  1.00  0.00     0.161 A 
ATOM      6  C   UNL     1      -2.114  -8.411 -27.477  1.00  0.00     0.050 A 
ENDROOT
BRANCH   3   7
ATOM      7  O   UNL     1      -1.151 -12.450 -27.706  1.00  0.00    -0.504 OA
ATOM      8  H   UNL     1      -0.356 -12.516 -28.262  1.00  0.00     0.293 HD
ENDBRANCH   3   7
BRANCH   5   9
ATOM      9  O   UNL     1       0.206  -7.918 -27.304  1.00  0.00    -0.504 OA
ATOM     10  H   UNL     1      -0.220  -7.066 -27.525  1.00  0.00     0.293 HD
ENDBRANCH   5   9
BRANCH   4  11
ATOM     11  O   UNL     1       0.819 -10.585 -27.457  1.00  0.00    -0.502 OA
ATOM     12  H   UNL     1       0.943 -10.882 -26.532  1.00  0.00     0.293 HD
ENDBRANCH   4  11
TORSDOF 3
ENDMDL
MODEL 3
REMARK VINA RESULT:      -4.9     10.427     10.973
REMARK SMILES Oc1cccc(O)c1O
REMARK SMILES IDX 4 1 5 2 6 3 8 4 2 5 3 6 7 7 1 9 9 11
REMARK H PARENT 7 8 1 10 9 12
ROOT
ATOM      1  C   UNL     1      -4.529  -1.128 -28.412  1.00  0.00     0.008 A 
ATOM      2  C   UNL     1      -4.363  -1.382 -29.779  1.00  0.00     0.050 A 
ATOM      3  C   UNL     1      -3.252  -0.866 -30.439  1.00  0.00     0.161 A 
ATOM      4  C   UNL     1      -2.316  -0.106 -29.744  1.00  0.00     0.200 A 
ATOM      5  C   UNL     1      -2.484   0.141 -28.388  1.00  0.00     0.161 A 
ATOM      6  C   UNL     1      -3.586  -0.365 -27.713  1.00  0.00     0.050 A 
ENDROOT
BRANCH   3   7
ATOM      7  O   UNL     1      -3.036  -1.078 -31.772  1.00  0.00    -0.504 OA
ATOM      8  H   UNL     1      -2.695  -0.252 -32.158  1.00  0.00     0.293 HD
ENDBRANCH   3   7
BRANCH   5   9
ATOM      9  O   UNL     1      -1.564   0.887 -27.709  1.00  0.00    -0.504 OA
ATOM     10  H   UNL     1      -0.704   0.613 -28.086  1.00  0.00     0.293 HD
ENDBRANCH   5   9
BRANCH   4  11
ATOM     11  O   UNL     1      -1.221   0.406 -30.385  1.00  0.00    -0.502 OA
ATOM     12  H   UNL     1      -0.875   1.079 -29.764  1.00  0.00     0.293 HD
ENDBRANCH   4  11
TORSDOF 3
ENDMDL
MODEL 4
REMARK VINA RESULT:      -4.8      1.754      2.916
REMARK SMILES Oc1cccc(O)c1O
REMARK SMILES IDX 4 1 5 2 6 3 8 4 2 5 3 6 7 7 1 9 9 11
REMARK H PARENT 7 8 1 10 9 12
ROOT
ATOM      1  C   UNL     1      -3.158  -9.379 -27.648  1.00  0.00     0.008 A 
ATOM      2  C   UNL     1      -2.154  -8.413 -27.513  1.00  0.00     0.050 A 
ATOM      3  C   UNL     1      -0.824  -8.816 -27.439  1.00  0.00     0.161 A 
ATOM      4  C   UNL     1      -0.499 -10.167 -27.498  1.00  0.00     0.200 A 
ATOM      5  C   UNL     1      -1.498 -11.122 -27.633  1.00  0.00     0.161 A 
ATOM      6  C   UNL     1      -2.830 -10.739 -27.709  1.00  0.00     0.050 A 
ENDROOT
BRANCH   3   7
ATOM      7  O   UNL     1       0.200  -7.920 -27.306  1.00  0.00    -0.504 OA
ATOM      8  H   UNL     1       0.575  -7.758 -28.189  1.00  0.00     0.293 HD
ENDBRANCH   3   7
BRANCH   5   9
ATOM      9  O   UNL     1      -1.175 -12.447 -27.691  1.00  0.00    -0.504 OA
ATOM     10  H   UNL     1      -0.401 -12.535 -27.100  1.00  0.00     0.293 HD
ENDBRANCH   5   9
BRANCH   4  11
ATOM     11  O   UNL     1       0.806 -10.572 -27.425  1.00  0.00    -0.502 OA
ATOM     12  H   UNL     1       0.879 -11.264 -28.115  1.00  0.00     0.293 HD
ENDBRANCH   4  11
TORSDOF 3
ENDMDL
MODEL 5
REMARK VINA RESULT:      -4.8     10.449     10.841
REMARK SMILES Oc1cccc(O)c1O
REMARK SMILES IDX 4 1 5 2 6 3 8 4 2 5 3 6 7 7 1 9 9 11
REMARK H PARENT 7 8 1 10 9 12
ROOT
ATOM      1  C   UNL     1      -4.562  -1.123 -28.459  1.00  0.00     0.008 A 
ATOM      2  C   UNL     1      -3.636  -0.371 -27.726  1.00  0.00     0.050 A 
ATOM      3  C   UNL     1      -2.511   0.139 -28.367  1.00  0.00     0.161 A 
ATOM      4  C   UNL     1      -2.312  -0.097 -29.723  1.00  0.00     0.200 A 
ATOM      5  C   UNL     1      -3.234  -0.842 -30.447  1.00  0.00     0.161 A 
ATOM      6  C   UNL     1      -4.361  -1.359 -29.824  1.00  0.00     0.050 A 
ENDROOT
BRANCH   3   7
ATOM      7  O   UNL     1      -1.572   0.880 -27.705  1.00  0.00    -0.504 OA
ATOM      8  H   UNL     1      -1.486   1.735 -28.161  1.00  0.00     0.293 HD
ENDBRANCH   3   7
BRANCH   5   9
ATOM      9  O   UNL     1      -3.035  -1.072 -31.777  1.00  0.00    -0.504 OA
ATOM     10  H   UNL     1      -3.243  -0.217 -32.205  1.00  0.00     0.293 HD
ENDBRANCH   5   9
BRANCH   4  11
ATOM     11  O   UNL     1      -1.208   0.401 -30.361  1.00  0.00    -0.502 OA
ATOM     12  H   UNL     1      -1.475   0.439 -31.302  1.00  0.00     0.293 HD
ENDBRANCH   4  11
TORSDOF 3
ENDMDL
MODEL 6
REMARK VINA RESULT:      -4.8      0.133      2.760
REMARK SMILES Oc1cccc(O)c1O
REMARK SMILES IDX 4 1 5 2 6 3 8 4 2 5 3 6 7 7 1 9 9 11
REMARK H PARENT 7 8 1 10 9 12
ROOT
ATOM      1  C   UNL     1      -0.700  -9.021 -25.717  1.00  0.00     0.008 A 
ATOM      2  C   UNL     1      -1.591  -8.825 -26.780  1.00  0.00     0.050 A 
ATOM      3  C   UNL     1      -1.719  -9.811 -27.753  1.00  0.00     0.161 A 
ATOM      4  C   UNL     1      -0.968 -10.979 -27.668  1.00  0.00     0.200 A 
ATOM      5  C   UNL     1      -0.086 -11.169 -26.613  1.00  0.00     0.161 A 
ATOM      6  C   UNL     1       0.055 -10.196 -25.633  1.00  0.00     0.050 A 
ENDROOT
BRANCH   3   7
ATOM      7  O   UNL     1      -2.572  -9.678 -28.813  1.00  0.00    -0.504 OA
ATOM      8  H   UNL     1      -3.479  -9.627 -28.466  1.00  0.00     0.293 HD
ENDBRANCH   3   7
BRANCH   5   9
ATOM      9  O   UNL     1       0.649 -12.316 -26.533  1.00  0.00    -0.504 OA
ATOM     10  H   UNL     1       0.551 -12.603 -25.603  1.00  0.00     0.293 HD
ENDBRANCH   5   9
BRANCH   4  11
ATOM     11  O   UNL     1      -1.088 -11.953 -28.622  1.00  0.00    -0.502 OA
ATOM     12  H   UNL     1      -0.166 -12.121 -28.907  1.00  0.00     0.293 HD
ENDBRANCH   4  11
TORSDOF 3
ENDMDL
MODEL 7
REMARK VINA RESULT:      -4.7      1.156      2.835
REMARK SMILES Oc1cccc(O)c1O
REMARK SMILES IDX 4 1 5 2 6 3 8 4 2 5 3 6 7 7 1 9 9 11
REMARK H PARENT 7 8 1 10 9 12
ROOT
ATOM      1  C   UNL     1      -1.272  -9.190 -26.746  1.00  0.00     0.008 A 
ATOM      2  C   UNL     1      -1.535 -10.279 -27.587  1.00  0.00     0.050 A 
ATOM      3  C   UNL     1      -0.829 -11.465 -27.408  1.00  0.00     0.161 A 
ATOM      4  C   UNL     1       0.129 -11.564 -26.404  1.00  0.00     0.200 A 
ATOM      5  C   UNL     1       0.386 -10.482 -25.573  1.00  0.00     0.161 A 
ATOM      6  C   UNL     1      -0.309  -9.292 -25.735  1.00  0.00     0.050 A 
ENDROOT
BRANCH   3   7
ATOM      7  O   UNL     1      -1.041 -12.562 -28.197  1.00  0.00    -0.504 OA
ATOM      8  H   UNL     1      -1.685 -13.136 -27.747  1.00  0.00     0.293 HD
ENDBRANCH   3   7
BRANCH   5   9
ATOM      9  O   UNL     1       1.326 -10.583 -24.588  1.00  0.00    -0.504 OA
ATOM     10  H   UNL     1       0.812 -10.539 -23.757  1.00  0.00     0.293 HD
ENDBRANCH   5   9
BRANCH   4  11
ATOM     11  O   UNL     1       0.828 -12.727 -26.223  1.00  0.00    -0.502 OA
ATOM     12  H   UNL     1       1.764 -12.459 -26.327  1.00  0.00     0.293 HD
ENDBRANCH   4  11
TORSDOF 3
ENDMDL
MODEL 8
REMARK VINA RESULT:      -4.7     20.549     21.487
REMARK SMILES Oc1cccc(O)c1O
REMARK SMILES IDX 4 1 5 2 6 3 8 4 2 5 3 6 7 7 1 9 9 11
REMARK H PARENT 7 8 1 10 9 12
ROOT
ATOM      1  C   UNL     1       6.609  10.030 -33.773  1.00  0.00     0.008 A 
ATOM      2  C   UNL     1       5.644   9.016 -33.762  1.00  0.00     0.050 A 
ATOM      3  C   UNL     1       6.051   7.685 -33.784  1.00  0.00     0.161 A 
ATOM      4  C   UNL     1       7.406   7.369 -33.815  1.00  0.00     0.200 A 
ATOM      5  C   UNL     1       8.360   8.378 -33.824  1.00  0.00     0.161 A 
ATOM      6  C   UNL     1       7.972   9.711 -33.803  1.00  0.00     0.050 A 
ENDROOT
BRANCH   3   7
ATOM      7  O   UNL     1       5.156   6.652 -33.775  1.00  0.00    -0.504 OA
ATOM      8  H   UNL     1       5.659   5.818 -33.759  1.00  0.00     0.293 HD
ENDBRANCH   3   7
BRANCH   5   9
ATOM      9  O   UNL     1       9.688   8.065 -33.855  1.00  0.00    -0.504 OA
ATOM     10  H   UNL     1      10.101   8.699 -33.235  1.00  0.00     0.293 HD
ENDBRANCH   5   9
BRANCH   4  11
ATOM     11  O   UNL     1       7.815   6.063 -33.837  1.00  0.00    -0.502 OA
ATOM     12  H   UNL     1       7.854   5.811 -32.892  1.00  0.00     0.293 HD
ENDBRANCH   4  11
TORSDOF 3
ENDMDL
MODEL 9
REMARK VINA RESULT:      -4.7     20.433     21.467
REMARK SMILES Oc1cccc(O)c1O
REMARK SMILES IDX 4 1 5 2 6 3 8 4 2 5 3 6 7 7 1 9 9 11
REMARK H PARENT 7 8 1 10 9 12
ROOT
ATOM      1  C   UNL     1       8.045   9.703 -33.813  1.00  0.00     0.008 A 
ATOM      2  C   UNL     1       6.687  10.045 -33.786  1.00  0.00     0.050 A 
ATOM      3  C   UNL     1       5.729   9.036 -33.783  1.00  0.00     0.161 A 
ATOM      4  C   UNL     1       6.120   7.701 -33.807  1.00  0.00     0.200 A 
ATOM      5  C   UNL     1       7.467   7.366 -33.833  1.00  0.00     0.161 A 
ATOM      6  C   UNL     1       8.437   8.359 -33.837  1.00  0.00     0.050 A 
ENDROOT
BRANCH   3   7
ATOM      7  O   UNL     1       4.389   9.307 -33.757  1.00  0.00    -0.504 OA
ATOM      8  H   UNL     1       4.135   9.479 -32.833  1.00  0.00     0.293 HD
ENDBRANCH   3   7
BRANCH   5   9
ATOM      9  O   UNL     1       7.847   6.056 -33.857  1.00  0.00    -0.504 OA
ATOM     10  H   UNL     1       8.023   5.871 -34.802  1.00  0.00     0.293 HD
ENDBRANCH   5   9
BRANCH   4  11
ATOM     11  O   UNL     1       5.184   6.702 -33.805  1.00  0.00    -0.502 OA
ATOM     12  H   UNL     1       5.712   5.882 -33.888  1.00  0.00     0.293 HD
ENDBRANCH   4  11
TORSDOF 3
ENDMDL
MODEL 10
REMARK VINA RESULT:      -4.7     20.545     21.407
REMARK SMILES Oc1cccc(O)c1O
REMARK SMILES IDX 4 1 5 2 6 3 8 4 2 5 3 6 7 7 1 9 9 11
REMARK H PARENT 7 8 1 10 9 12
ROOT
ATOM      1  C   UNL     1       6.559  10.020 -33.767  1.00  0.00     0.008 A 
ATOM      2  C   UNL     1       7.930   9.736 -33.800  1.00  0.00     0.050 A 
ATOM      3  C   UNL     1       8.352   8.410 -33.824  1.00  0.00     0.161 A 
ATOM      4  C   UNL     1       7.419   7.379 -33.814  1.00  0.00     0.200 A 
ATOM      5  C   UNL     1       6.060   7.665 -33.782  1.00  0.00     0.161 A 
ATOM      6  C   UNL     1       5.621   8.981 -33.758  1.00  0.00     0.050 A 
ENDROOT
BRANCH   3   7
ATOM      7  O   UNL     1       9.676   8.070 -33.857  1.00  0.00    -0.504 OA
ATOM      8  H   UNL     1       9.938   7.968 -34.788  1.00  0.00     0.293 HD
ENDBRANCH   3   7
BRANCH   5   9
ATOM      9  O   UNL     1       5.147   6.651 -33.773  1.00  0.00    -0.504 OA
ATOM     10  H   UNL     1       4.281   7.104 -33.813  1.00  0.00     0.293 HD
ENDBRANCH   5   9
BRANCH   4  11
ATOM     11  O   UNL     1       7.825   6.072 -33.836  1.00  0.00    -0.502 OA
ATOM     12  H   UNL     1       8.700   6.089 -33.397  1.00  0.00     0.293 HD
ENDBRANCH   4  11
TORSDOF 3
ENDMDL
