MODEL 1
REMARK VINA RESULT:      -5.3      0.000      0.000
REMARK SMILES C=CCSC[C@H](N)C(=O)O
REMARK SMILES IDX 5 1 4 2 3 3 2 4 1 5 6 6 8 7 9 8 10 9 7 11
REMARK H PARENT 10 10 7 12 7 13
ROOT
ATOM      1  C   UNL     1       0.334  -9.900 -26.642  1.00  0.00     0.100 C 
ENDROOT
BRANCH   1   2
ATOM      2  S   UNL     1      -1.205  -8.912 -26.667  1.00  0.00    -0.156 SA
BRANCH   2   3
ATOM      3  C   UNL     1      -2.101  -9.847 -27.942  1.00  0.00     0.096 C 
BRANCH   3   4
ATOM      4  C   UNL     1      -3.490  -9.301 -28.056  1.00  0.00    -0.024 C 
ATOM      5  C   UNL     1      -4.512  -9.658 -27.266  1.00  0.00     0.005 C 
ENDBRANCH   3   4
ENDBRANCH   2   3
ENDBRANCH   1   2
BRANCH   1   6
ATOM      6  C   UNL     1       0.246 -11.050 -25.630  1.00  0.00     0.172 C 
BRANCH   6   7
ATOM      7  C   UNL     1       0.332 -12.389 -26.373  1.00  0.00     0.321 C 
ATOM      8  O   UNL     1      -0.488 -12.809 -27.174  1.00  0.00    -0.251 OA
BRANCH   7   9
ATOM      9  O   UNL     1       1.447 -13.078 -26.011  1.00  0.00    -0.480 OA
ATOM     10  H   UNL     1       1.245 -14.032 -26.197  1.00  0.00     0.296 HD
ENDBRANCH   7   9
ENDBRANCH   6   7
BRANCH   6  11
ATOM     11  N   UNL     1       1.328 -11.022 -24.589  1.00  0.00    -0.318 NA
ATOM     12  H   UNL     1       0.881 -10.670 -23.731  1.00  0.00     0.119 HD
ATOM     13  H   UNL     1       1.970 -10.258 -24.828  1.00  0.00     0.119 HD
ENDBRANCH   6  11
ENDBRANCH   1   6
TORSDOF 7
ENDMDL
MODEL 2
REMARK VINA RESULT:      -5.2      1.706      1.875
REMARK SMILES C=CCSC[C@H](N)C(=O)O
REMARK SMILES IDX 5 1 4 2 3 3 2 4 1 5 6 6 8 7 9 8 10 9 7 11
REMARK H PARENT 10 10 7 12 7 13
ROOT
ATOM      1  C   UNL     1      -1.482 -10.050 -26.202  1.00  0.00     0.100 C 
ENDROOT
BRANCH   1   2
ATOM      2  S   UNL     1      -2.064 -10.489 -27.879  1.00  0.00    -0.156 SA
BRANCH   2   3
ATOM      3  C   UNL     1      -3.098  -9.028 -28.192  1.00  0.00     0.096 C 
BRANCH   3   4
ATOM      4  C   UNL     1      -4.069  -8.871 -27.064  1.00  0.00    -0.024 C 
ATOM      5  C   UNL     1      -5.203  -9.574 -26.937  1.00  0.00     0.005 C 
ENDBRANCH   3   4
ENDBRANCH   2   3
ENDBRANCH   1   2
BRANCH   1   6
ATOM      6  C   UNL     1       0.046  -9.921 -26.154  1.00  0.00     0.172 C 
BRANCH   6   7
ATOM      7  C   UNL     1       0.653 -11.236 -25.648  1.00  0.00     0.321 C 
ATOM      8  O   UNL     1       0.539 -12.323 -26.192  1.00  0.00    -0.251 OA
BRANCH   7   9
ATOM      9  O   UNL     1       1.334 -11.045 -24.487  1.00  0.00    -0.480 OA
ATOM     10  H   UNL     1       2.270 -10.853 -24.753  1.00  0.00     0.296 HD
ENDBRANCH   7   9
ENDBRANCH   6   7
BRANCH   6  11
ATOM     11  N   UNL     1       0.667  -9.601 -27.483  1.00  0.00    -0.318 NA
ATOM     12  H   UNL     1       1.543 -10.141 -27.519  1.00  0.00     0.119 HD
ATOM     13  H   UNL     1       1.012  -8.635 -27.441  1.00  0.00     0.119 HD
ENDBRANCH   6  11
ENDBRANCH   1   6
TORSDOF 7
ENDMDL
MODEL 3
REMARK VINA RESULT:      -5.0      3.184      4.769
REMARK SMILES C=CCSC[C@H](N)C(=O)O
REMARK SMILES IDX 5 1 4 2 3 3 2 4 1 5 6 6 8 7 9 8 10 9 7 11
REMARK H PARENT 10 10 7 12 7 13
ROOT
ATOM      1  C   UNL     1      -1.374  -9.730 -26.359  1.00  0.00     0.100 C 
ENDROOT
BRANCH   1   2
ATOM      2  S   UNL     1       0.436  -9.776 -26.609  1.00  0.00    -0.156 SA
BRANCH   2   3
ATOM      3  C   UNL     1       0.879 -10.780 -25.160  1.00  0.00     0.096 C 
BRANCH   3   4
ATOM      4  C   UNL     1       0.756 -12.229 -25.520  1.00  0.00    -0.024 C 
ATOM      5  C   UNL     1       0.717 -13.230 -24.630  1.00  0.00     0.005 C 
ENDBRANCH   3   4
ENDBRANCH   2   3
ENDBRANCH   1   2
BRANCH   1   6
ATOM      6  C   UNL     1      -2.105 -10.596 -27.393  1.00  0.00     0.172 C 
BRANCH   6   7
ATOM      7  C   UNL     1      -3.192  -9.760 -28.081  1.00  0.00     0.321 C 
ATOM      8  O   UNL     1      -2.994  -8.776 -28.776  1.00  0.00    -0.251 OA
BRANCH   7   9
ATOM      9  O   UNL     1      -4.431 -10.245 -27.804  1.00  0.00    -0.480 OA
ATOM     10  H   UNL     1      -4.322 -11.227 -27.715  1.00  0.00     0.296 HD
ENDBRANCH   7   9
ENDBRANCH   6   7
BRANCH   6  11
ATOM     11  N   UNL     1      -1.205 -11.157 -28.457  1.00  0.00    -0.318 NA
ATOM     12  H   UNL     1      -0.274 -11.232 -28.023  1.00  0.00     0.119 HD
ATOM     13  H   UNL     1      -1.058 -10.422 -29.158  1.00  0.00     0.119 HD
ENDBRANCH   6  11
ENDBRANCH   1   6
TORSDOF 7
ENDMDL
MODEL 4
REMARK VINA RESULT:      -5.0      1.895      2.138
REMARK SMILES C=CCSC[C@H](N)C(=O)O
REMARK SMILES IDX 5 1 4 2 3 3 2 4 1 5 6 6 8 7 9 8 10 9 7 11
REMARK H PARENT 10 10 7 12 7 13
ROOT
ATOM      1  C   UNL     1      -1.477  -9.912 -26.411  1.00  0.00     0.100 C 
ENDROOT
BRANCH   1   2
ATOM      2  S   UNL     1      -2.394  -8.905 -27.631  1.00  0.00    -0.156 SA
BRANCH   2   3
ATOM      3  C   UNL     1      -3.822 -10.005 -27.863  1.00  0.00     0.096 C 
BRANCH   3   4
ATOM      4  C   UNL     1      -4.919  -9.575 -26.939  1.00  0.00    -0.024 C 
ATOM      5  C   UNL     1      -5.690 -10.416 -26.236  1.00  0.00     0.005 C 
ENDBRANCH   3   4
ENDBRANCH   2   3
ENDBRANCH   1   2
BRANCH   1   6
ATOM      6  C   UNL     1      -0.312 -10.665 -27.067  1.00  0.00     0.172 C 
BRANCH   6   7
ATOM      7  C   UNL     1       0.421 -11.494 -26.004  1.00  0.00     0.321 C 
ATOM      8  O   UNL     1       0.702 -12.678 -26.100  1.00  0.00    -0.251 OA
BRANCH   7   9
ATOM      9  O   UNL     1       0.713 -10.741 -24.911  1.00  0.00    -0.480 OA
ATOM     10  H   UNL     1       1.344 -10.043 -25.226  1.00  0.00     0.296 HD
ENDBRANCH   7   9
ENDBRANCH   6   7
BRANCH   6  11
ATOM     11  N   UNL     1      -0.736 -11.591 -28.170  1.00  0.00    -0.318 NA
ATOM     12  H   UNL     1      -1.423 -11.064 -28.728  1.00  0.00     0.119 HD
ATOM     13  H   UNL     1      -1.316 -12.327 -27.753  1.00  0.00     0.119 HD
ENDBRANCH   6  11
ENDBRANCH   1   6
TORSDOF 7
ENDMDL
MODEL 5
REMARK VINA RESULT:      -4.9     11.055     12.273
REMARK SMILES C=CCSC[C@H](N)C(=O)O
REMARK SMILES IDX 5 1 4 2 3 3 2 4 1 5 6 6 8 7 9 8 10 9 7 11
REMARK H PARENT 10 10 7 12 7 13
ROOT
ATOM      1  C   UNL     1       5.269  -1.644 -23.338  1.00  0.00     0.100 C 
ENDROOT
BRANCH   1   2
ATOM      2  S   UNL     1       4.620  -3.017 -22.319  1.00  0.00    -0.156 SA
BRANCH   2   3
ATOM      3  C   UNL     1       5.936  -3.064 -21.067  1.00  0.00     0.096 C 
BRANCH   3   4
ATOM      4  C   UNL     1       6.148  -1.680 -20.536  1.00  0.00    -0.024 C 
ATOM      5  C   UNL     1       6.855  -1.391 -19.435  1.00  0.00     0.005 C 
ENDBRANCH   3   4
ENDBRANCH   2   3
ENDBRANCH   1   2
BRANCH   1   6
ATOM      6  C   UNL     1       4.581  -1.589 -24.709  1.00  0.00     0.172 C 
BRANCH   6   7
ATOM      7  C   UNL     1       3.143  -1.081 -24.537  1.00  0.00     0.321 C 
ATOM      8  O   UNL     1       2.264  -1.645 -23.906  1.00  0.00    -0.251 OA
BRANCH   7   9
ATOM      9  O   UNL     1       2.956   0.090 -25.201  1.00  0.00    -0.480 OA
ATOM     10  H   UNL     1       2.002   0.094 -25.474  1.00  0.00     0.296 HD
ENDBRANCH   7   9
ENDBRANCH   6   7
BRANCH   6  11
ATOM     11  N   UNL     1       5.276  -0.697 -25.698  1.00  0.00    -0.318 NA
ATOM     12  H   UNL     1       5.894  -0.091 -25.140  1.00  0.00     0.119 HD
ATOM     13  H   UNL     1       4.583  -0.030 -26.055  1.00  0.00     0.119 HD
ENDBRANCH   6  11
ENDBRANCH   1   6
TORSDOF 7
ENDMDL
MODEL 6
REMARK VINA RESULT:      -4.9      4.166      5.377
REMARK SMILES C=CCSC[C@H](N)C(=O)O
REMARK SMILES IDX 5 1 4 2 3 3 2 4 1 5 6 6 8 7 9 8 10 9 7 11
REMARK H PARENT 10 10 7 12 7 13
ROOT
ATOM      1  C   UNL     1      -3.845 -10.579 -27.212  1.00  0.00     0.100 C 
ENDROOT
BRANCH   1   2
ATOM      2  S   UNL     1      -3.199  -8.921 -27.635  1.00  0.00    -0.156 SA
BRANCH   2   3
ATOM      3  C   UNL     1      -1.424  -9.313 -27.609  1.00  0.00     0.096 C 
BRANCH   3   4
ATOM      4  C   UNL     1      -1.009  -9.586 -26.197  1.00  0.00    -0.024 C 
ATOM      5  C   UNL     1       0.046 -10.334 -25.848  1.00  0.00     0.005 C 
ENDBRANCH   3   4
ENDBRANCH   2   3
ENDBRANCH   1   2
BRANCH   1   6
ATOM      6  C   UNL     1      -5.379 -10.604 -27.231  1.00  0.00     0.172 C 
BRANCH   6   7
ATOM      7  C   UNL     1      -5.890 -11.410 -26.029  1.00  0.00     0.321 C 
ATOM      8  O   UNL     1      -6.416 -12.510 -26.086  1.00  0.00    -0.251 OA
BRANCH   7   9
ATOM      9  O   UNL     1      -5.699 -10.730 -24.868  1.00  0.00    -0.480 OA
ATOM     10  H   UNL     1      -4.853 -10.225 -24.988  1.00  0.00     0.296 HD
ENDBRANCH   7   9
ENDBRANCH   6   7
BRANCH   6  11
ATOM     11  N   UNL     1      -6.007  -9.241 -27.180  1.00  0.00    -0.318 NA
ATOM     12  H   UNL     1      -6.688  -9.277 -26.408  1.00  0.00     0.119 HD
ATOM     13  H   UNL     1      -6.616  -9.148 -28.001  1.00  0.00     0.119 HD
ENDBRANCH   6  11
ENDBRANCH   1   6
TORSDOF 7
ENDMDL
MODEL 7
REMARK VINA RESULT:      -4.9     11.262     12.451
REMARK SMILES C=CCSC[C@H](N)C(=O)O
REMARK SMILES IDX 5 1 4 2 3 3 2 4 1 5 6 6 8 7 9 8 10 9 7 11
REMARK H PARENT 10 10 7 12 7 13
ROOT
ATOM      1  C   UNL     1       4.647  -2.022 -24.734  1.00  0.00     0.100 C 
ENDROOT
BRANCH   1   2
ATOM      2  S   UNL     1       4.142  -2.503 -23.044  1.00  0.00    -0.156 SA
BRANCH   2   3
ATOM      3  C   UNL     1       5.608  -1.909 -22.149  1.00  0.00     0.096 C 
BRANCH   3   4
ATOM      4  C   UNL     1       5.881  -2.831 -21.001  1.00  0.00    -0.024 C 
ATOM      5  C   UNL     1       6.524  -2.476 -19.881  1.00  0.00     0.005 C 
ENDBRANCH   3   4
ENDBRANCH   2   3
ENDBRANCH   1   2
BRANCH   1   6
ATOM      6  C   UNL     1       4.407  -0.527 -24.987  1.00  0.00     0.172 C 
BRANCH   6   7
ATOM      7  C   UNL     1       5.176  -0.094 -26.242  1.00  0.00     0.321 C 
ATOM      8  O   UNL     1       4.964  -0.494 -27.376  1.00  0.00    -0.251 OA
BRANCH   7   9
ATOM      9  O   UNL     1       6.155   0.796 -25.933  1.00  0.00    -0.480 OA
ATOM     10  H   UNL     1       6.634   0.975 -26.783  1.00  0.00     0.296 HD
ENDBRANCH   7   9
ENDBRANCH   6   7
BRANCH   6  11
ATOM     11  N   UNL     1       2.960  -0.172 -25.180  1.00  0.00    -0.318 NA
ATOM     12  H   UNL     1       2.956   0.652 -25.798  1.00  0.00     0.119 HD
ATOM     13  H   UNL     1       2.616   0.218 -24.296  1.00  0.00     0.119 HD
ENDBRANCH   6  11
ENDBRANCH   1   6
TORSDOF 7
ENDMDL
MODEL 8
REMARK VINA RESULT:      -4.8     14.626     15.618
REMARK SMILES C=CCSC[C@H](N)C(=O)O
REMARK SMILES IDX 5 1 4 2 3 3 2 4 1 5 6 6 8 7 9 8 10 9 7 11
REMARK H PARENT 10 10 7 12 7 13
ROOT
ATOM      1  C   UNL     1       8.133  -0.679 -18.906  1.00  0.00     0.100 C 
ENDROOT
BRANCH   1   2
ATOM      2  S   UNL     1       6.534  -1.566 -18.965  1.00  0.00    -0.156 SA
BRANCH   2   3
ATOM      3  C   UNL     1       6.981  -2.837 -20.184  1.00  0.00     0.096 C 
BRANCH   3   4
ATOM      4  C   UNL     1       5.834  -3.027 -21.127  1.00  0.00    -0.024 C 
ATOM      5  C   UNL     1       5.412  -2.104 -22.002  1.00  0.00     0.005 C 
ENDBRANCH   3   4
ENDBRANCH   2   3
ENDBRANCH   1   2
BRANCH   1   6
ATOM      6  C   UNL     1       8.641  -0.534 -17.465  1.00  0.00     0.172 C 
BRANCH   6   7
ATOM      7  C   UNL     1       8.347   0.886 -16.962  1.00  0.00     0.321 C 
ATOM      8  O   UNL     1       7.255   1.432 -16.984  1.00  0.00    -0.251 OA
BRANCH   7   9
ATOM      9  O   UNL     1       9.475   1.483 -16.495  1.00  0.00    -0.480 OA
ATOM     10  H   UNL     1      10.160   1.352 -17.200  1.00  0.00     0.296 HD
ENDBRANCH   7   9
ENDBRANCH   6   7
BRANCH   6  11
ATOM     11  N   UNL     1       8.020  -1.507 -16.504  1.00  0.00    -0.318 NA
ATOM     12  H   UNL     1       8.807  -1.948 -16.007  1.00  0.00     0.119 HD
ATOM     13  H   UNL     1       7.646  -2.290 -17.053  1.00  0.00     0.119 HD
ENDBRANCH   6  11
ENDBRANCH   1   6
TORSDOF 7
ENDMDL
MODEL 9
REMARK VINA RESULT:      -4.7      3.481      4.988
REMARK SMILES C=CCSC[C@H](N)C(=O)O
REMARK SMILES IDX 5 1 4 2 3 3 2 4 1 5 6 6 8 7 9 8 10 9 7 11
REMARK H PARENT 10 10 7 12 7 13
ROOT
ATOM      1  C   UNL     1      -2.048 -10.355 -26.908  1.00  0.00     0.100 C 
ENDROOT
BRANCH   1   2
ATOM      2  S   UNL     1      -0.841  -8.992 -27.082  1.00  0.00    -0.156 SA
BRANCH   2   3
ATOM      3  C   UNL     1       0.660  -9.906 -26.619  1.00  0.00     0.096 C 
BRANCH   3   4
ATOM      4  C   UNL     1       0.323 -10.864 -25.519  1.00  0.00    -0.024 C 
ATOM      5  C   UNL     1       0.791 -12.117 -25.437  1.00  0.00     0.005 C 
ENDBRANCH   3   4
ENDBRANCH   2   3
ENDBRANCH   1   2
BRANCH   1   6
ATOM      6  C   UNL     1      -3.241 -10.173 -27.856  1.00  0.00     0.172 C 
BRANCH   6   7
ATOM      7  C   UNL     1      -4.535 -10.097 -27.037  1.00  0.00     0.321 C 
ATOM      8  O   UNL     1      -5.259 -11.043 -26.767  1.00  0.00    -0.251 OA
BRANCH   7   9
ATOM      9  O   UNL     1      -4.797  -8.820 -26.653  1.00  0.00    -0.480 OA
ATOM     10  H   UNL     1      -5.479  -8.889 -25.935  1.00  0.00     0.296 HD
ENDBRANCH   7   9
ENDBRANCH   6   7
BRANCH   6  11
ATOM     11  N   UNL     1      -3.154  -8.938 -28.706  1.00  0.00    -0.318 NA
ATOM     12  H   UNL     1      -4.048  -8.445 -28.574  1.00  0.00     0.119 HD
ATOM     13  H   UNL     1      -3.212  -9.231 -29.688  1.00  0.00     0.119 HD
ENDBRANCH   6  11
ENDBRANCH   1   6
TORSDOF 7
ENDMDL
MODEL 10
REMARK VINA RESULT:      -4.6     13.357     14.294
REMARK SMILES C=CCSC[C@H](N)C(=O)O
REMARK SMILES IDX 5 1 4 2 3 3 2 4 1 5 6 6 8 7 9 8 10 9 7 11
REMARK H PARENT 10 10 7 12 7 13
ROOT
ATOM      1  C   UNL     1       6.447  -0.908 -18.842  1.00  0.00     0.100 C 
ENDROOT
BRANCH   1   2
ATOM      2  S   UNL     1       6.556  -2.441 -19.833  1.00  0.00    -0.156 SA
BRANCH   2   3
ATOM      3  C   UNL     1       5.958  -1.777 -21.416  1.00  0.00     0.096 C 
BRANCH   3   4
ATOM      4  C   UNL     1       5.074  -2.797 -22.065  1.00  0.00    -0.024 C 
ATOM      5  C   UNL     1       4.311  -2.562 -23.142  1.00  0.00     0.005 C 
ENDBRANCH   3   4
ENDBRANCH   2   3
ENDBRANCH   1   2
BRANCH   1   6
ATOM      6  C   UNL     1       7.646  -0.765 -17.896  1.00  0.00     0.172 C 
BRANCH   6   7
ATOM      7  C   UNL     1       7.317  -1.429 -16.552  1.00  0.00     0.321 C 
ATOM      8  O   UNL     1       6.193  -1.650 -16.129  1.00  0.00    -0.251 OA
BRANCH   7   9
ATOM      9  O   UNL     1       8.450  -1.731 -15.865  1.00  0.00    -0.480 OA
ATOM     10  H   UNL     1       8.336  -2.667 -15.558  1.00  0.00     0.296 HD
ENDBRANCH   7   9
ENDBRANCH   6   7
BRANCH   6  11
ATOM     11  N   UNL     1       8.909  -1.383 -18.424  1.00  0.00    -0.318 NA
ATOM     12  H   UNL     1       8.622  -2.262 -18.877  1.00  0.00     0.119 HD
ATOM     13  H   UNL     1       9.449  -1.722 -17.619  1.00  0.00     0.119 HD
ENDBRANCH   6  11
ENDBRANCH   1   6
TORSDOF 7
ENDMDL
