MODEL 1
REMARK VINA RESULT:      -6.6      0.000      0.000
REMARK SMILES C1=C[C@H]2C(=C1)C=CC1=CC=C[C@@H]12
REMARK SMILES IDX 1 1 2 2 3 3 12 4 11 5 10 6 9 7 8 8 7 9 6 10 4 11 5 12
REMARK H PARENT
ROOT
ATOM      1  C   UNL     1      -5.863  -0.121 -24.330  1.00  0.00    -0.003 C 
ATOM      2  C   UNL     1      -4.725   0.465 -24.745  1.00  0.00    -0.018 C 
ATOM      3  C   UNL     1      -4.121  -0.339 -25.867  1.00  0.00     0.053 C 
ATOM      4  C   UNL     1      -3.879   0.362 -27.209  1.00  0.00     0.053 C 
ATOM      5  C   UNL     1      -2.675   1.259 -27.336  1.00  0.00    -0.018 C 
ATOM      6  C   UNL     1      -1.895   0.831 -28.344  1.00  0.00    -0.003 C 
ATOM      7  C   UNL     1      -2.436  -0.389 -28.905  1.00  0.00     0.004 C 
ATOM      8  C   UNL     1      -3.550  -0.714 -28.238  1.00  0.00    -0.040 C 
ATOM      9  C   UNL     1      -4.330  -1.926 -28.278  1.00  0.00     0.004 C 
ATOM     10  C   UNL     1      -5.145  -2.241 -27.252  1.00  0.00     0.004 C 
ATOM     11  C   UNL     1      -5.200  -1.393 -26.085  1.00  0.00    -0.040 C 
ATOM     12  C   UNL     1      -6.157  -1.272 -25.156  1.00  0.00     0.004 C 
ENDROOT
TORSDOF 0
ENDMDL
MODEL 2
REMARK VINA RESULT:      -6.6      0.018      3.763
REMARK SMILES C1=C[C@H]2C(=C1)C=CC1=CC=C[C@@H]12
REMARK SMILES IDX 1 1 2 2 3 3 12 4 11 5 10 6 9 7 8 8 7 9 6 10 4 11 5 12
REMARK H PARENT
ROOT
ATOM      1  C   UNL     1      -1.898   0.838 -28.361  1.00  0.00    -0.003 C 
ATOM      2  C   UNL     1      -2.675   1.264 -27.348  1.00  0.00    -0.018 C 
ATOM      3  C   UNL     1      -3.873   0.361 -27.214  1.00  0.00     0.053 C 
ATOM      4  C   UNL     1      -4.105  -0.339 -25.871  1.00  0.00     0.053 C 
ATOM      5  C   UNL     1      -4.707   0.462 -24.746  1.00  0.00    -0.018 C 
ATOM      6  C   UNL     1      -5.839  -0.129 -24.324  1.00  0.00    -0.003 C 
ATOM      7  C   UNL     1      -6.133  -1.282 -25.149  1.00  0.00     0.004 C 
ATOM      8  C   UNL     1      -5.181  -1.399 -26.082  1.00  0.00    -0.040 C 
ATOM      9  C   UNL     1      -5.129  -2.246 -27.248  1.00  0.00     0.004 C 
ATOM     10  C   UNL     1      -4.323  -1.930 -28.280  1.00  0.00     0.004 C 
ATOM     11  C   UNL     1      -3.546  -0.714 -28.245  1.00  0.00    -0.040 C 
ATOM     12  C   UNL     1      -2.437  -0.383 -28.919  1.00  0.00     0.004 C 
ENDROOT
TORSDOF 0
ENDMDL
MODEL 3
REMARK VINA RESULT:      -6.6      1.118      4.598
REMARK SMILES C1=C[C@H]2C(=C1)C=CC1=CC=C[C@@H]12
REMARK SMILES IDX 1 1 2 2 3 3 12 4 11 5 10 6 9 7 8 8 7 9 6 10 4 11 5 12
REMARK H PARENT
ROOT
ATOM      1  C   UNL     1      -3.015  -1.088 -31.044  1.00  0.00    -0.003 C 
ATOM      2  C   UNL     1      -3.728  -1.736 -30.105  1.00  0.00    -0.018 C 
ATOM      3  C   UNL     1      -3.409  -1.169 -28.746  1.00  0.00     0.053 C 
ATOM      4  C   UNL     1      -4.561  -0.604 -27.909  1.00  0.00     0.053 C 
ATOM      5  C   UNL     1      -5.457  -1.575 -27.184  1.00  0.00    -0.018 C 
ATOM      6  C   UNL     1      -5.446  -1.305 -25.866  1.00  0.00    -0.003 C 
ATOM      7  C   UNL     1      -4.515  -0.232 -25.588  1.00  0.00     0.004 C 
ATOM      8  C   UNL     1      -3.951   0.158 -26.738  1.00  0.00    -0.040 C 
ATOM      9  C   UNL     1      -2.830   1.037 -26.965  1.00  0.00     0.004 C 
ATOM     10  C   UNL     1      -2.145   0.975 -28.123  1.00  0.00     0.004 C 
ATOM     11  C   UNL     1      -2.496  -0.007 -29.121  1.00  0.00    -0.040 C 
ATOM     12  C   UNL     1      -2.250  -0.021 -30.437  1.00  0.00     0.004 C 
ENDROOT
TORSDOF 0
ENDMDL
MODEL 4
REMARK VINA RESULT:      -6.6      1.117      2.847
REMARK SMILES C1=C[C@H]2C(=C1)C=CC1=CC=C[C@@H]12
REMARK SMILES IDX 1 1 2 2 3 3 12 4 11 5 10 6 9 7 8 8 7 9 6 10 4 11 5 12
REMARK H PARENT
ROOT
ATOM      1  C   UNL     1      -5.391  -1.296 -25.836  1.00  0.00    -0.003 C 
ATOM      2  C   UNL     1      -5.419  -1.580 -27.151  1.00  0.00    -0.018 C 
ATOM      3  C   UNL     1      -4.541  -0.610 -27.899  1.00  0.00     0.053 C 
ATOM      4  C   UNL     1      -3.397  -1.176 -28.746  1.00  0.00     0.053 C 
ATOM      5  C   UNL     1      -3.730  -1.759 -30.094  1.00  0.00    -0.018 C 
ATOM      6  C   UNL     1      -3.036  -1.117 -31.050  1.00  0.00    -0.003 C 
ATOM      7  C   UNL     1      -2.273  -0.035 -30.466  1.00  0.00     0.004 C 
ATOM      8  C   UNL     1      -2.500  -0.010 -29.147  1.00  0.00    -0.040 C 
ATOM      9  C   UNL     1      -2.143   0.986 -28.168  1.00  0.00     0.004 C 
ATOM     10  C   UNL     1      -2.811   1.058 -27.000  1.00  0.00     0.004 C 
ATOM     11  C   UNL     1      -3.921   0.171 -26.746  1.00  0.00    -0.040 C 
ATOM     12  C   UNL     1      -4.467  -0.211 -25.584  1.00  0.00     0.004 C 
ENDROOT
TORSDOF 0
ENDMDL
MODEL 5
REMARK VINA RESULT:      -6.3      5.920      7.212
REMARK SMILES C1=C[C@H]2C(=C1)C=CC1=CC=C[C@@H]12
REMARK SMILES IDX 1 1 2 2 3 3 12 4 11 5 10 6 9 7 8 8 7 9 6 10 4 11 5 12
REMARK H PARENT
ROOT
ATOM      1  C   UNL     1      -8.777  -3.566 -30.359  1.00  0.00    -0.003 C 
ATOM      2  C   UNL     1      -9.654  -2.748 -30.970  1.00  0.00    -0.018 C 
ATOM      3  C   UNL     1      -9.022  -1.397 -31.184  1.00  0.00     0.053 C 
ATOM      4  C   UNL     1      -8.937  -0.857 -32.615  1.00  0.00     0.053 C 
ATOM      5  C   UNL     1     -10.179  -0.262 -33.226  1.00  0.00    -0.018 C 
ATOM      6  C   UNL     1      -9.938   1.007 -33.600  1.00  0.00    -0.003 C 
ATOM      7  C   UNL     1      -8.597   1.390 -33.213  1.00  0.00     0.004 C 
ATOM      8  C   UNL     1      -8.013   0.356 -32.597  1.00  0.00    -0.040 C 
ATOM      9  C   UNL     1      -6.777   0.300 -31.857  1.00  0.00     0.004 C 
ATOM     10  C   UNL     1      -6.566  -0.686 -30.963  1.00  0.00     0.004 C 
ATOM     11  C   UNL     1      -7.599  -1.661 -30.704  1.00  0.00    -0.040 C 
ATOM     12  C   UNL     1      -7.507  -2.895 -30.191  1.00  0.00     0.004 C 
ENDROOT
TORSDOF 0
ENDMDL
MODEL 6
REMARK VINA RESULT:      -6.2      3.374      4.796
REMARK SMILES C1=C[C@H]2C(=C1)C=CC1=CC=C[C@@H]12
REMARK SMILES IDX 1 1 2 2 3 3 12 4 11 5 10 6 9 7 8 8 7 9 6 10 4 11 5 12
REMARK H PARENT
ROOT
ATOM      1  C   UNL     1      -2.647  -0.624 -29.024  1.00  0.00    -0.003 C 
ATOM      2  C   UNL     1      -3.046   0.092 -30.091  1.00  0.00    -0.018 C 
ATOM      3  C   UNL     1      -4.322  -0.490 -30.643  1.00  0.00     0.053 C 
ATOM      4  C   UNL     1      -5.550   0.421 -30.737  1.00  0.00     0.053 C 
ATOM      5  C   UNL     1      -5.622   1.404 -31.877  1.00  0.00    -0.018 C 
ATOM      6  C   UNL     1      -6.739   1.187 -32.594  1.00  0.00    -0.003 C 
ATOM      7  C   UNL     1      -7.444   0.035 -32.075  1.00  0.00     0.004 C 
ATOM      8  C   UNL     1      -6.757  -0.460 -31.038  1.00  0.00    -0.040 C 
ATOM      9  C   UNL     1      -6.931  -1.700 -30.323  1.00  0.00     0.004 C 
ATOM     10  C   UNL     1      -5.911  -2.221 -29.613  1.00  0.00     0.004 C 
ATOM     11  C   UNL     1      -4.624  -1.567 -29.608  1.00  0.00    -0.040 C 
ATOM     12  C   UNL     1      -3.621  -1.652 -28.725  1.00  0.00     0.004 C 
ENDROOT
TORSDOF 0
ENDMDL
MODEL 7
REMARK VINA RESULT:      -6.2      3.407      4.839
REMARK SMILES C1=C[C@H]2C(=C1)C=CC1=CC=C[C@@H]12
REMARK SMILES IDX 1 1 2 2 3 3 12 4 11 5 10 6 9 7 8 8 7 9 6 10 4 11 5 12
REMARK H PARENT
ROOT
ATOM      1  C   UNL     1      -6.738   1.243 -32.613  1.00  0.00    -0.003 C 
ATOM      2  C   UNL     1      -5.619   1.447 -31.894  1.00  0.00    -0.018 C 
ATOM      3  C   UNL     1      -5.554   0.453 -30.764  1.00  0.00     0.053 C 
ATOM      4  C   UNL     1      -4.330  -0.466 -30.679  1.00  0.00     0.053 C 
ATOM      5  C   UNL     1      -3.051   0.102 -30.121  1.00  0.00    -0.018 C 
ATOM      6  C   UNL     1      -2.656  -0.625 -29.062  1.00  0.00    -0.003 C 
ATOM      7  C   UNL     1      -3.636  -1.650 -28.771  1.00  0.00     0.004 C 
ATOM      8  C   UNL     1      -4.638  -1.551 -29.653  1.00  0.00    -0.040 C 
ATOM      9  C   UNL     1      -5.927  -2.197 -29.663  1.00  0.00     0.004 C 
ATOM     10  C   UNL     1      -6.945  -1.666 -30.367  1.00  0.00     0.004 C 
ATOM     11  C   UNL     1      -6.766  -0.419 -31.072  1.00  0.00    -0.040 C 
ATOM     12  C   UNL     1      -7.450   0.091 -32.104  1.00  0.00     0.004 C 
ENDROOT
TORSDOF 0
ENDMDL
MODEL 8
REMARK VINA RESULT:      -6.2      5.876      7.596
REMARK SMILES C1=C[C@H]2C(=C1)C=CC1=CC=C[C@@H]12
REMARK SMILES IDX 1 1 2 2 3 3 12 4 11 5 10 6 9 7 8 8 7 9 6 10 4 11 5 12
REMARK H PARENT
ROOT
ATOM      1  C   UNL     1      -9.783   1.042 -33.767  1.00  0.00    -0.003 C 
ATOM      2  C   UNL     1      -9.974  -0.231 -33.376  1.00  0.00    -0.018 C 
ATOM      3  C   UNL     1      -8.727  -0.748 -32.706  1.00  0.00     0.053 C 
ATOM      4  C   UNL     1      -8.840  -1.266 -31.269  1.00  0.00     0.053 C 
ATOM      5  C   UNL     1      -9.408  -2.644 -31.051  1.00  0.00    -0.018 C 
ATOM      6  C   UNL     1      -8.516  -3.403 -30.391  1.00  0.00    -0.003 C 
ATOM      7  C   UNL     1      -7.288  -2.664 -30.190  1.00  0.00     0.004 C 
ATOM      8  C   UNL     1      -7.424  -1.447 -30.731  1.00  0.00    -0.040 C 
ATOM      9  C   UNL     1      -6.434  -0.427 -30.971  1.00  0.00     0.004 C 
ATOM     10  C   UNL     1      -6.657   0.531 -31.891  1.00  0.00     0.004 C 
ATOM     11  C   UNL     1      -7.867   0.511 -32.678  1.00  0.00    -0.040 C 
ATOM     12  C   UNL     1      -8.480   1.502 -33.339  1.00  0.00     0.004 C 
ENDROOT
TORSDOF 0
ENDMDL
MODEL 9
REMARK VINA RESULT:      -6.2      3.048      4.294
REMARK SMILES C1=C[C@H]2C(=C1)C=CC1=CC=C[C@@H]12
REMARK SMILES IDX 1 1 2 2 3 3 12 4 11 5 10 6 9 7 8 8 7 9 6 10 4 11 5 12
REMARK H PARENT
ROOT
ATOM      1  C   UNL     1      -3.360  -1.680 -28.984  1.00  0.00    -0.003 C 
ATOM      2  C   UNL     1      -2.801  -0.502 -28.648  1.00  0.00    -0.018 C 
ATOM      3  C   UNL     1      -3.297   0.577 -29.576  1.00  0.00     0.053 C 
ATOM      4  C   UNL     1      -4.002   1.791 -28.961  1.00  0.00     0.053 C 
ATOM      5  C   UNL     1      -3.152   2.862 -28.329  1.00  0.00    -0.018 C 
ATOM      6  C   UNL     1      -3.397   4.044 -28.923  1.00  0.00    -0.003 C 
ATOM      7  C   UNL     1      -4.328   3.865 -30.017  1.00  0.00     0.004 C 
ATOM      8  C   UNL     1      -4.655   2.570 -30.097  1.00  0.00    -0.040 C 
ATOM      9  C   UNL     1      -5.375   1.862 -31.126  1.00  0.00     0.004 C 
ATOM     10  C   UNL     1      -5.238   0.527 -31.253  1.00  0.00     0.004 C 
ATOM     11  C   UNL     1      -4.330  -0.192 -30.393  1.00  0.00    -0.040 C 
ATOM     12  C   UNL     1      -4.303  -1.490 -30.065  1.00  0.00     0.004 C 
ENDROOT
TORSDOF 0
ENDMDL
MODEL 10
REMARK VINA RESULT:      -6.2      3.089      4.502
REMARK SMILES C1=C[C@H]2C(=C1)C=CC1=CC=C[C@@H]12
REMARK SMILES IDX 1 1 2 2 3 3 12 4 11 5 10 6 9 7 8 8 7 9 6 10 4 11 5 12
REMARK H PARENT
ROOT
ATOM      1  C   UNL     1      -3.734   4.003 -29.205  1.00  0.00    -0.003 C 
ATOM      2  C   UNL     1      -3.383   2.876 -28.556  1.00  0.00    -0.018 C 
ATOM      3  C   UNL     1      -4.172   1.713 -29.100  1.00  0.00     0.053 C 
ATOM      4  C   UNL     1      -3.399   0.520 -29.672  1.00  0.00     0.053 C 
ATOM      5  C   UNL     1      -2.796  -0.467 -28.707  1.00  0.00    -0.018 C 
ATOM      6  C   UNL     1      -3.276  -1.698 -28.959  1.00  0.00    -0.003 C 
ATOM      7  C   UNL     1      -4.265  -1.638 -30.013  1.00  0.00     0.004 C 
ATOM      8  C   UNL     1      -4.397  -0.366 -30.409  1.00  0.00    -0.040 C 
ATOM      9  C   UNL     1      -5.384   0.235 -31.272  1.00  0.00     0.004 C 
ATOM     10  C   UNL     1      -5.616   1.560 -31.215  1.00  0.00     0.004 C 
ATOM     11  C   UNL     1      -4.917   2.377 -30.252  1.00  0.00    -0.040 C 
ATOM     12  C   UNL     1      -4.684   3.696 -30.252  1.00  0.00     0.004 C 
ENDROOT
TORSDOF 0
ENDMDL
