MODEL 1
REMARK VINA RESULT:      -6.1      0.000      0.000
REMARK SMILES C1=CC2=CCC[C@H]2C=C1
REMARK SMILES IDX 5 1 6 2 7 3 8 4 9 5 1 6 2 7 3 8 4 9
REMARK H PARENT
ROOT
ATOM      1  C   UNL     1      -4.389  -9.326 -27.440  1.00  0.00     0.028 C 
ATOM      2  C   UNL     1      -3.267  -8.353 -27.043  1.00  0.00     0.016 C 
ATOM      3  C   UNL     1      -2.008  -8.947 -27.678  1.00  0.00     0.042 C 
ATOM      4  C   UNL     1      -0.696  -8.635 -27.011  1.00  0.00    -0.019 C 
ATOM      5  C   UNL     1       0.217  -9.601 -26.803  1.00  0.00    -0.004 C 
ATOM      6  C   UNL     1      -0.051 -10.978 -27.182  1.00  0.00    -0.000 C 
ATOM      7  C   UNL     1      -1.277 -11.383 -27.560  1.00  0.00     0.004 C 
ATOM      8  C   UNL     1      -2.342 -10.419 -27.631  1.00  0.00    -0.045 C 
ATOM      9  C   UNL     1      -3.661 -10.629 -27.557  1.00  0.00    -0.023 C 
ENDROOT
TORSDOF 0
ENDMDL
MODEL 2
REMARK VINA RESULT:      -6.1     13.814     15.504
REMARK SMILES C1=CC2=CCC[C@H]2C=C1
REMARK SMILES IDX 5 1 6 2 7 3 8 4 9 5 1 6 2 7 3 8 4 9
REMARK H PARENT
ROOT
ATOM      1  C   UNL     1       6.128  -3.230 -19.695  1.00  0.00     0.028 C 
ATOM      2  C   UNL     1       5.975  -3.137 -18.168  1.00  0.00     0.016 C 
ATOM      3  C   UNL     1       6.240  -1.665 -17.849  1.00  0.00     0.042 C 
ATOM      4  C   UNL     1       6.775  -1.350 -16.479  1.00  0.00    -0.019 C 
ATOM      5  C   UNL     1       7.795  -0.488 -16.319  1.00  0.00    -0.004 C 
ATOM      6  C   UNL     1       8.435   0.135 -17.466  1.00  0.00    -0.000 C 
ATOM      7  C   UNL     1       8.182  -0.269 -18.723  1.00  0.00     0.004 C 
ATOM      8  C   UNL     1       7.221  -1.317 -18.943  1.00  0.00    -0.045 C 
ATOM      9  C   UNL     1       7.120  -2.148 -19.987  1.00  0.00    -0.023 C 
ENDROOT
TORSDOF 0
ENDMDL
MODEL 3
REMARK VINA RESULT:      -5.8     13.634     15.390
REMARK SMILES C1=CC2=CCC[C@H]2C=C1
REMARK SMILES IDX 5 1 6 2 7 3 8 4 9 5 1 6 2 7 3 8 4 9
REMARK H PARENT
ROOT
ATOM      1  C   UNL     1       8.195   0.303 -17.227  1.00  0.00     0.028 C 
ATOM      2  C   UNL     1       8.283  -0.204 -18.676  1.00  0.00     0.016 C 
ATOM      3  C   UNL     1       6.958  -0.933 -18.904  1.00  0.00     0.042 C 
ATOM      4  C   UNL     1       6.954  -2.037 -19.927  1.00  0.00    -0.019 C 
ATOM      5  C   UNL     1       6.356  -3.213 -19.667  1.00  0.00    -0.004 C 
ATOM      6  C   UNL     1       5.730  -3.467 -18.380  1.00  0.00    -0.000 C 
ATOM      7  C   UNL     1       5.895  -2.635 -17.337  1.00  0.00     0.004 C 
ATOM      8  C   UNL     1       6.677  -1.440 -17.510  1.00  0.00    -0.045 C 
ATOM      9  C   UNL     1       7.316  -0.722 -16.580  1.00  0.00    -0.023 C 
ENDROOT
TORSDOF 0
ENDMDL
MODEL 4
REMARK VINA RESULT:      -5.7      8.514      9.539
REMARK SMILES C1=CC2=CCC[C@H]2C=C1
REMARK SMILES IDX 5 1 6 2 7 3 8 4 9 5 1 6 2 7 3 8 4 9
REMARK H PARENT
ROOT
ATOM      1  C   UNL     1      -5.354  -1.453 -25.861  1.00  0.00     0.028 C 
ATOM      2  C   UNL     1      -4.431  -0.231 -25.723  1.00  0.00     0.016 C 
ATOM      3  C   UNL     1      -4.125   0.179 -27.165  1.00  0.00     0.042 C 
ATOM      4  C   UNL     1      -2.825   0.894 -27.409  1.00  0.00    -0.019 C 
ATOM      5  C   UNL     1      -2.034   0.551 -28.442  1.00  0.00    -0.004 C 
ATOM      6  C   UNL     1      -2.394  -0.543 -29.329  1.00  0.00    -0.000 C 
ATOM      7  C   UNL     1      -3.406  -1.381 -29.044  1.00  0.00     0.004 C 
ATOM      8  C   UNL     1      -4.181  -1.165 -27.852  1.00  0.00    -0.045 C 
ATOM      9  C   UNL     1      -4.907  -2.050 -27.159  1.00  0.00    -0.023 C 
ENDROOT
TORSDOF 0
ENDMDL
MODEL 5
REMARK VINA RESULT:      -5.5      0.657      3.673
REMARK SMILES C1=CC2=CCC[C@H]2C=C1
REMARK SMILES IDX 5 1 6 2 7 3 8 4 9 5 1 6 2 7 3 8 4 9
REMARK H PARENT
ROOT
ATOM      1  C   UNL     1       0.597  -9.670 -26.828  1.00  0.00     0.028 C 
ATOM      2  C   UNL     1      -0.353 -10.869 -26.683  1.00  0.00     0.016 C 
ATOM      3  C   UNL     1      -1.517 -10.548 -27.621  1.00  0.00     0.042 C 
ATOM      4  C   UNL     1      -2.853 -11.148 -27.281  1.00  0.00    -0.019 C 
ATOM      5  C   UNL     1      -3.974 -10.406 -27.331  1.00  0.00    -0.004 C 
ATOM      6  C   UNL     1      -3.923  -8.995 -27.678  1.00  0.00    -0.000 C 
ATOM      7  C   UNL     1      -2.758  -8.329 -27.761  1.00  0.00     0.004 C 
ATOM      8  C   UNL     1      -1.527  -9.039 -27.543  1.00  0.00    -0.045 C 
ATOM      9  C   UNL     1      -0.342  -8.552 -27.159  1.00  0.00    -0.023 C 
ENDROOT
TORSDOF 0
ENDMDL
MODEL 6
REMARK VINA RESULT:      -5.5      8.524      9.589
REMARK SMILES C1=CC2=CCC[C@H]2C=C1
REMARK SMILES IDX 5 1 6 2 7 3 8 4 9 5 1 6 2 7 3 8 4 9
REMARK H PARENT
ROOT
ATOM      1  C   UNL     1      -4.954  -1.172 -26.447  1.00  0.00     0.028 C 
ATOM      2  C   UNL     1      -5.119  -1.893 -27.795  1.00  0.00     0.016 C 
ATOM      3  C   UNL     1      -3.758  -1.741 -28.476  1.00  0.00     0.042 C 
ATOM      4  C   UNL     1      -3.742  -1.763 -29.980  1.00  0.00    -0.019 C 
ATOM      5  C   UNL     1      -3.021  -0.864 -30.674  1.00  0.00    -0.004 C 
ATOM      6  C   UNL     1      -2.268   0.177 -29.994  1.00  0.00    -0.000 C 
ATOM      7  C   UNL     1      -2.417   0.414 -28.679  1.00  0.00     0.004 C 
ATOM      8  C   UNL     1      -3.315  -0.410 -27.915  1.00  0.00    -0.045 C 
ATOM      9  C   UNL     1      -3.935  -0.122 -26.765  1.00  0.00    -0.023 C 
ENDROOT
TORSDOF 0
ENDMDL
MODEL 7
REMARK VINA RESULT:      -5.5      8.376      9.645
REMARK SMILES C1=CC2=CCC[C@H]2C=C1
REMARK SMILES IDX 5 1 6 2 7 3 8 4 9 5 1 6 2 7 3 8 4 9
REMARK H PARENT
ROOT
ATOM      1  C   UNL     1      -3.006  -0.602 -30.707  1.00  0.00     0.028 C 
ATOM      2  C   UNL     1      -2.955   0.507 -29.644  1.00  0.00     0.016 C 
ATOM      3  C   UNL     1      -3.006  -0.242 -28.311  1.00  0.00     0.042 C 
ATOM      4  C   UNL     1      -3.584   0.497 -27.135  1.00  0.00    -0.019 C 
ATOM      5  C   UNL     1      -4.463  -0.102 -26.311  1.00  0.00    -0.004 C 
ATOM      6  C   UNL     1      -4.907  -1.464 -26.553  1.00  0.00    -0.000 C 
ATOM      7  C   UNL     1      -4.629  -2.106 -27.701  1.00  0.00     0.004 C 
ATOM      8  C   UNL     1      -3.834  -1.444 -28.700  1.00  0.00    -0.045 C 
ATOM      9  C   UNL     1      -3.789  -1.676 -30.017  1.00  0.00    -0.023 C 
ENDROOT
TORSDOF 0
ENDMDL
MODEL 8
REMARK VINA RESULT:      -5.4      8.826      9.891
REMARK SMILES C1=CC2=CCC[C@H]2C=C1
REMARK SMILES IDX 5 1 6 2 7 3 8 4 9 5 1 6 2 7 3 8 4 9
REMARK H PARENT
ROOT
ATOM      1  C   UNL     1      -1.959   0.973 -27.944  1.00  0.00     0.028 C 
ATOM      2  C   UNL     1      -3.275   0.735 -27.186  1.00  0.00     0.016 C 
ATOM      3  C   UNL     1      -3.693  -0.681 -27.585  1.00  0.00     0.042 C 
ATOM      4  C   UNL     1      -5.163  -0.995 -27.545  1.00  0.00    -0.019 C 
ATOM      5  C   UNL     1      -5.753  -1.660 -28.555  1.00  0.00    -0.004 C 
ATOM      6  C   UNL     1      -4.996  -2.060 -29.730  1.00  0.00    -0.000 C 
ATOM      7  C   UNL     1      -3.747  -1.615 -29.953  1.00  0.00     0.004 C 
ATOM      8  C   UNL     1      -3.127  -0.753 -28.983  1.00  0.00    -0.045 C 
ATOM      9  C   UNL     1      -2.131   0.122 -29.164  1.00  0.00    -0.023 C 
ENDROOT
TORSDOF 0
ENDMDL
MODEL 9
REMARK VINA RESULT:      -5.4      8.540     10.035
REMARK SMILES C1=CC2=CCC[C@H]2C=C1
REMARK SMILES IDX 5 1 6 2 7 3 8 4 9 5 1 6 2 7 3 8 4 9
REMARK H PARENT
ROOT
ATOM      1  C   UNL     1      -1.908   0.496 -29.126  1.00  0.00     0.028 C 
ATOM      2  C   UNL     1      -2.657  -0.824 -29.366  1.00  0.00     0.016 C 
ATOM      3  C   UNL     1      -3.957  -0.672 -28.573  1.00  0.00     0.042 C 
ATOM      4  C   UNL     1      -4.608  -1.936 -28.083  1.00  0.00    -0.019 C 
ATOM      5  C   UNL     1      -5.075  -2.026 -26.825  1.00  0.00    -0.004 C 
ATOM      6  C   UNL     1      -4.931  -0.921 -25.892  1.00  0.00    -0.000 C 
ATOM      7  C   UNL     1      -4.158   0.143 -26.169  1.00  0.00     0.004 C 
ATOM      8  C   UNL     1      -3.488   0.211 -27.441  1.00  0.00    -0.045 C 
ATOM      9  C   UNL     1      -2.388   0.898 -27.766  1.00  0.00    -0.023 C 
ENDROOT
TORSDOF 0
ENDMDL
MODEL 10
REMARK VINA RESULT:      -5.4      8.686      9.641
REMARK SMILES C1=CC2=CCC[C@H]2C=C1
REMARK SMILES IDX 5 1 6 2 7 3 8 4 9 5 1 6 2 7 3 8 4 9
REMARK H PARENT
ROOT
ATOM      1  C   UNL     1      -5.859  -2.083 -28.301  1.00  0.00     0.028 C 
ATOM      2  C   UNL     1      -4.783  -1.926 -29.387  1.00  0.00     0.016 C 
ATOM      3  C   UNL     1      -3.546  -1.440 -28.629  1.00  0.00     0.042 C 
ATOM      4  C   UNL     1      -2.551  -0.620 -29.402  1.00  0.00    -0.019 C 
ATOM      5  C   UNL     1      -2.028   0.503 -28.877  1.00  0.00    -0.004 C 
ATOM      6  C   UNL     1      -2.436   0.975 -27.564  1.00  0.00    -0.000 C 
ATOM      7  C   UNL     1      -3.484   0.440 -26.914  1.00  0.00     0.004 C 
ATOM      8  C   UNL     1      -4.196  -0.656 -27.513  1.00  0.00    -0.045 C 
ATOM      9  C   UNL     1      -5.455  -1.050 -27.295  1.00  0.00    -0.023 C 
ENDROOT
TORSDOF 0
ENDMDL
