MODEL 1
REMARK VINA RESULT:      -7.3      0.000      0.000
REMARK SMILES C[C@@H](c1ccccc1)c1ccc(O)cc1O
REMARK SMILES IDX 9 1 15 2 14 3 12 4 11 5 10 6 2 7 1 8 3 9 4 10 8 11 5 12 7 13
REMARK SMILES IDX 6 14 16 15 13 17
REMARK H PARENT 16 16 13 18
ROOT
ATOM      1  C   UNL     1      -4.480  -0.816 -29.674  1.00  0.00     0.001 A 
ATOM      2  C   UNL     1      -3.277  -0.509 -30.330  1.00  0.00     0.123 A 
ATOM      3  C   UNL     1      -2.229   0.132 -29.665  1.00  0.00     0.092 A 
ATOM      4  C   UNL     1      -2.368   0.457 -28.322  1.00  0.00     0.119 A 
ATOM      5  C   UNL     1      -3.538   0.157 -27.639  1.00  0.00     0.047 A 
ATOM      6  C   UNL     1      -4.588  -0.472 -28.311  1.00  0.00     0.012 A 
ENDROOT
BRANCH   1   7
ATOM      7  C   UNL     1      -5.698  -1.444 -30.354  1.00  0.00     0.050 C 
ATOM      8  C   UNL     1      -6.434  -2.336 -29.342  1.00  0.00     0.018 C 
BRANCH   7   9
ATOM      9  C   UNL     1      -6.567  -0.440 -31.113  1.00  0.00    -0.041 A 
ATOM     10  C   UNL     1      -6.204   0.904 -31.293  1.00  0.00     0.004 A 
ATOM     11  C   UNL     1      -7.799  -0.865 -31.643  1.00  0.00     0.004 A 
ATOM     12  C   UNL     1      -7.031   1.784 -31.995  1.00  0.00     0.000 A 
ATOM     13  C   UNL     1      -8.625   0.014 -32.347  1.00  0.00     0.000 A 
ATOM     14  C   UNL     1      -8.239   1.338 -32.525  1.00  0.00     0.000 A 
ENDBRANCH   7   9
ENDBRANCH   1   7
BRANCH   2  15
ATOM     15  O   UNL     1      -3.043  -0.800 -31.644  1.00  0.00    -0.508 OA
ATOM     16  H   UNL     1      -3.896  -0.946 -32.083  1.00  0.00     0.293 HD
ENDBRANCH   2  15
BRANCH   4  17
ATOM     17  O   UNL     1      -1.368   1.077 -27.632  1.00  0.00    -0.508 OA
ATOM     18  H   UNL     1      -0.615   0.466 -27.573  1.00  0.00     0.293 HD
ENDBRANCH   4  17
TORSDOF 4
ENDMDL
MODEL 2
REMARK VINA RESULT:      -7.1      2.967      6.025
REMARK SMILES C[C@@H](c1ccccc1)c1ccc(O)cc1O
REMARK SMILES IDX 9 1 15 2 14 3 12 4 11 5 10 6 2 7 1 8 3 9 4 10 8 11 5 12 7 13
REMARK SMILES IDX 6 14 16 15 13 17
REMARK H PARENT 16 16 13 18
ROOT
ATOM      1  C   UNL     1      -7.702   1.255 -31.780  1.00  0.00     0.001 A 
ATOM      2  C   UNL     1      -7.909   1.040 -33.153  1.00  0.00     0.123 A 
ATOM      3  C   UNL     1      -9.133   0.577 -33.639  1.00  0.00     0.092 A 
ATOM      4  C   UNL     1     -10.177   0.340 -32.753  1.00  0.00     0.119 A 
ATOM      5  C   UNL     1     -10.012   0.555 -31.393  1.00  0.00     0.047 A 
ATOM      6  C   UNL     1      -8.782   1.006 -30.909  1.00  0.00     0.012 A 
ENDROOT
BRANCH   1   7
ATOM      7  C   UNL     1      -6.368   1.686 -31.166  1.00  0.00     0.050 C 
ATOM      8  C   UNL     1      -6.641   2.647 -29.998  1.00  0.00     0.018 C 
BRANCH   7   9
ATOM      9  C   UNL     1      -5.423   0.522 -30.866  1.00  0.00    -0.041 A 
ATOM     10  C   UNL     1      -5.801  -0.594 -30.101  1.00  0.00     0.004 A 
ATOM     11  C   UNL     1      -4.104   0.568 -31.355  1.00  0.00     0.004 A 
ATOM     12  C   UNL     1      -4.901  -1.633 -29.855  1.00  0.00     0.000 A 
ATOM     13  C   UNL     1      -3.206  -0.473 -31.110  1.00  0.00     0.000 A 
ATOM     14  C   UNL     1      -3.606  -1.574 -30.361  1.00  0.00     0.000 A 
ENDBRANCH   7   9
ENDBRANCH   1   7
BRANCH   2  15
ATOM     15  O   UNL     1      -6.949   1.256 -34.100  1.00  0.00    -0.508 OA
ATOM     16  H   UNL     1      -6.537   0.405 -34.319  1.00  0.00     0.293 HD
ENDBRANCH   2  15
BRANCH   4  17
ATOM     17  O   UNL     1     -11.391  -0.106 -33.185  1.00  0.00    -0.508 OA
ATOM     18  H   UNL     1     -11.584   0.314 -34.039  1.00  0.00     0.293 HD
ENDBRANCH   4  17
TORSDOF 4
ENDMDL
MODEL 3
REMARK VINA RESULT:      -6.9      1.896      2.835
REMARK SMILES C[C@@H](c1ccccc1)c1ccc(O)cc1O
REMARK SMILES IDX 9 1 15 2 14 3 12 4 11 5 10 6 2 7 1 8 3 9 4 10 8 11 5 12 7 13
REMARK SMILES IDX 6 14 16 15 13 17
REMARK H PARENT 16 16 13 18
ROOT
ATOM      1  C   UNL     1      -6.142  -0.216 -30.532  1.00  0.00     0.001 A 
ATOM      2  C   UNL     1      -5.225  -1.160 -30.043  1.00  0.00     0.123 A 
ATOM      3  C   UNL     1      -3.870  -1.099 -30.377  1.00  0.00     0.092 A 
ATOM      4  C   UNL     1      -3.412  -0.074 -31.194  1.00  0.00     0.119 A 
ATOM      5  C   UNL     1      -4.288   0.885 -31.684  1.00  0.00     0.047 A 
ATOM      6  C   UNL     1      -5.644   0.812 -31.358  1.00  0.00     0.012 A 
ENDROOT
BRANCH   1   7
ATOM      7  C   UNL     1      -7.649  -0.263 -30.274  1.00  0.00     0.050 C 
ATOM      8  C   UNL     1      -7.952   0.430 -28.936  1.00  0.00     0.018 C 
BRANCH   7   9
ATOM      9  C   UNL     1      -8.493   0.190 -31.465  1.00  0.00    -0.041 A 
ATOM     10  C   UNL     1      -9.078   1.465 -31.549  1.00  0.00     0.004 A 
ATOM     11  C   UNL     1      -8.720  -0.708 -32.525  1.00  0.00     0.004 A 
ATOM     12  C   UNL     1      -9.841   1.833 -32.660  1.00  0.00     0.000 A 
ATOM     13  C   UNL     1      -9.482  -0.338 -33.635  1.00  0.00     0.000 A 
ATOM     14  C   UNL     1     -10.040   0.934 -33.703  1.00  0.00     0.000 A 
ENDBRANCH   7   9
ENDBRANCH   1   7
BRANCH   2  15
ATOM     15  O   UNL     1      -5.578  -2.196 -29.225  1.00  0.00    -0.508 OA
ATOM     16  H   UNL     1      -6.103  -1.841 -28.489  1.00  0.00     0.293 HD
ENDBRANCH   2  15
BRANCH   4  17
ATOM     17  O   UNL     1      -2.097   0.029 -31.540  1.00  0.00    -0.508 OA
ATOM     18  H   UNL     1      -1.692   0.722 -30.994  1.00  0.00     0.293 HD
ENDBRANCH   4  17
TORSDOF 4
ENDMDL
MODEL 4
REMARK VINA RESULT:      -6.8      1.430      1.805
REMARK SMILES C[C@@H](c1ccccc1)c1ccc(O)cc1O
REMARK SMILES IDX 9 1 15 2 14 3 12 4 11 5 10 6 2 7 1 8 3 9 4 10 8 11 5 12 7 13
REMARK SMILES IDX 6 14 16 15 13 17
REMARK H PARENT 16 16 13 18
ROOT
ATOM      1  C   UNL     1      -4.894  -0.823 -29.320  1.00  0.00     0.001 A 
ATOM      2  C   UNL     1      -5.075   0.233 -28.413  1.00  0.00     0.123 A 
ATOM      3  C   UNL     1      -3.986   0.874 -27.817  1.00  0.00     0.092 A 
ATOM      4  C   UNL     1      -2.696   0.474 -28.140  1.00  0.00     0.119 A 
ATOM      5  C   UNL     1      -2.480  -0.557 -29.043  1.00  0.00     0.047 A 
ATOM      6  C   UNL     1      -3.572  -1.204 -29.626  1.00  0.00     0.012 A 
ENDROOT
BRANCH   1   7
ATOM      7  C   UNL     1      -6.036  -1.624 -29.951  1.00  0.00     0.050 C 
ATOM      8  C   UNL     1      -6.887  -2.248 -28.835  1.00  0.00     0.018 C 
BRANCH   7   9
ATOM      9  C   UNL     1      -6.805  -0.858 -31.028  1.00  0.00    -0.041 A 
ATOM     10  C   UNL     1      -6.300   0.293 -31.657  1.00  0.00     0.004 A 
ATOM     11  C   UNL     1      -8.087  -1.303 -31.401  1.00  0.00     0.004 A 
ATOM     12  C   UNL     1      -7.041   0.959 -32.636  1.00  0.00     0.000 A 
ATOM     13  C   UNL     1      -8.825  -0.638 -32.382  1.00  0.00     0.000 A 
ATOM     14  C   UNL     1      -8.301   0.492 -33.001  1.00  0.00     0.000 A 
ENDBRANCH   7   9
ENDBRANCH   1   7
BRANCH   2  15
ATOM     15  O   UNL     1      -6.303   0.704 -28.043  1.00  0.00    -0.508 OA
ATOM     16  H   UNL     1      -6.206   1.193 -27.210  1.00  0.00     0.293 HD
ENDBRANCH   2  15
BRANCH   4  17
ATOM     17  O   UNL     1      -1.604   1.076 -27.588  1.00  0.00    -0.508 OA
ATOM     18  H   UNL     1      -1.019   0.384 -27.237  1.00  0.00     0.293 HD
ENDBRANCH   4  17
TORSDOF 4
ENDMDL
MODEL 5
REMARK VINA RESULT:      -6.7      4.757      6.831
REMARK SMILES C[C@@H](c1ccccc1)c1ccc(O)cc1O
REMARK SMILES IDX 9 1 15 2 14 3 12 4 11 5 10 6 2 7 1 8 3 9 4 10 8 11 5 12 7 13
REMARK SMILES IDX 6 14 16 15 13 17
REMARK H PARENT 16 16 13 18
ROOT
ATOM      1  C   UNL     1      -9.395  -3.533 -28.953  1.00  0.00     0.001 A 
ATOM      2  C   UNL     1      -9.818  -3.627 -27.617  1.00  0.00     0.123 A 
ATOM      3  C   UNL     1     -10.706  -4.623 -27.205  1.00  0.00     0.092 A 
ATOM      4  C   UNL     1     -11.170  -5.552 -28.127  1.00  0.00     0.119 A 
ATOM      5  C   UNL     1     -10.762  -5.496 -29.452  1.00  0.00     0.047 A 
ATOM      6  C   UNL     1      -9.884  -4.492 -29.864  1.00  0.00     0.012 A 
ENDROOT
BRANCH   1   7
ATOM      7  C   UNL     1      -8.488  -2.426 -29.495  1.00  0.00     0.050 C 
ATOM      8  C   UNL     1      -7.136  -3.037 -29.898  1.00  0.00     0.018 C 
BRANCH   7   9
ATOM      9  C   UNL     1      -9.157  -1.538 -30.543  1.00  0.00    -0.041 A 
ATOM     10  C   UNL     1      -8.763  -1.514 -31.892  1.00  0.00     0.004 A 
ATOM     11  C   UNL     1     -10.204  -0.683 -30.150  1.00  0.00     0.004 A 
ATOM     12  C   UNL     1      -9.407  -0.685 -32.814  1.00  0.00     0.000 A 
ATOM     13  C   UNL     1     -10.848   0.144 -31.072  1.00  0.00     0.000 A 
ATOM     14  C   UNL     1     -10.450   0.141 -32.405  1.00  0.00     0.000 A 
ENDBRANCH   7   9
ENDBRANCH   1   7
BRANCH   2  15
ATOM     15  O   UNL     1      -9.408  -2.768 -26.637  1.00  0.00    -0.508 OA
ATOM     16  H   UNL     1      -8.974  -2.008 -27.057  1.00  0.00     0.293 HD
ENDBRANCH   2  15
BRANCH   4  17
ATOM     17  O   UNL     1     -12.033  -6.544 -27.766  1.00  0.00    -0.508 OA
ATOM     18  H   UNL     1     -11.706  -6.949 -26.946  1.00  0.00     0.293 HD
ENDBRANCH   4  17
TORSDOF 4
ENDMDL
MODEL 6
REMARK VINA RESULT:      -6.7      2.711      5.784
REMARK SMILES C[C@@H](c1ccccc1)c1ccc(O)cc1O
REMARK SMILES IDX 9 1 15 2 14 3 12 4 11 5 10 6 2 7 1 8 3 9 4 10 8 11 5 12 7 13
REMARK SMILES IDX 6 14 16 15 13 17
REMARK H PARENT 16 16 13 18
ROOT
ATOM      1  C   UNL     1      -6.918   0.214 -31.634  1.00  0.00     0.001 A 
ATOM      2  C   UNL     1      -7.880  -0.802 -31.517  1.00  0.00     0.123 A 
ATOM      3  C   UNL     1      -9.232  -0.556 -31.766  1.00  0.00     0.092 A 
ATOM      4  C   UNL     1      -9.636   0.715 -32.156  1.00  0.00     0.119 A 
ATOM      5  C   UNL     1      -8.711   1.739 -32.294  1.00  0.00     0.047 A 
ATOM      6  C   UNL     1      -7.362   1.492 -32.031  1.00  0.00     0.012 A 
ENDROOT
BRANCH   1   7
ATOM      7  C   UNL     1      -5.435   0.041 -31.302  1.00  0.00     0.050 C 
ATOM      8  C   UNL     1      -4.658   1.259 -31.825  1.00  0.00     0.018 C 
BRANCH   7   9
ATOM      9  C   UNL     1      -5.169  -0.346 -29.848  1.00  0.00    -0.041 A 
ATOM     10  C   UNL     1      -5.636   0.406 -28.757  1.00  0.00     0.004 A 
ATOM     11  C   UNL     1      -4.404  -1.496 -29.574  1.00  0.00     0.004 A 
ATOM     12  C   UNL     1      -5.367   0.011 -27.444  1.00  0.00     0.000 A 
ATOM     13  C   UNL     1      -4.138  -1.891 -28.261  1.00  0.00     0.000 A 
ATOM     14  C   UNL     1      -4.622  -1.138 -27.197  1.00  0.00     0.000 A 
ENDBRANCH   7   9
ENDBRANCH   1   7
BRANCH   2  15
ATOM     15  O   UNL     1      -7.578  -2.084 -31.152  1.00  0.00    -0.508 OA
ATOM     16  H   UNL     1      -6.613  -2.191 -31.176  1.00  0.00     0.293 HD
ENDBRANCH   2  15
BRANCH   4  17
ATOM     17  O   UNL     1     -10.944   0.998 -32.415  1.00  0.00    -0.508 OA
ATOM     18  H   UNL     1     -11.410   1.091 -31.568  1.00  0.00     0.293 HD
ENDBRANCH   4  17
TORSDOF 4
ENDMDL
MODEL 7
REMARK VINA RESULT:      -6.6      2.546      2.926
REMARK SMILES C[C@@H](c1ccccc1)c1ccc(O)cc1O
REMARK SMILES IDX 9 1 15 2 14 3 12 4 11 5 10 6 2 7 1 8 3 9 4 10 8 11 5 12 7 13
REMARK SMILES IDX 6 14 16 15 13 17
REMARK H PARENT 16 16 13 18
ROOT
ATOM      1  C   UNL     1      -5.919   1.101 -30.361  1.00  0.00     0.001 A 
ATOM      2  C   UNL     1      -4.945   2.031 -30.759  1.00  0.00     0.123 A 
ATOM      3  C   UNL     1      -4.725   3.207 -30.038  1.00  0.00     0.092 A 
ATOM      4  C   UNL     1      -5.469   3.456 -28.892  1.00  0.00     0.119 A 
ATOM      5  C   UNL     1      -6.430   2.552 -28.462  1.00  0.00     0.047 A 
ATOM      6  C   UNL     1      -6.656   1.384 -29.193  1.00  0.00     0.012 A 
ENDROOT
BRANCH   1   7
ATOM      7  C   UNL     1      -6.271  -0.167 -31.142  1.00  0.00     0.050 C 
ATOM      8  C   UNL     1      -6.189  -1.377 -30.197  1.00  0.00     0.018 C 
BRANCH   7   9
ATOM      9  C   UNL     1      -7.553  -0.050 -31.965  1.00  0.00    -0.041 A 
ATOM     10  C   UNL     1      -7.692   0.839 -33.044  1.00  0.00     0.004 A 
ATOM     11  C   UNL     1      -8.662  -0.847 -31.624  1.00  0.00     0.004 A 
ATOM     12  C   UNL     1      -8.885   0.910 -33.767  1.00  0.00     0.000 A 
ATOM     13  C   UNL     1      -9.853  -0.777 -32.348  1.00  0.00     0.000 A 
ATOM     14  C   UNL     1      -9.963   0.100 -33.421  1.00  0.00     0.000 A 
ENDBRANCH   7   9
ENDBRANCH   1   7
BRANCH   2  15
ATOM     15  O   UNL     1      -4.158   1.868 -31.863  1.00  0.00    -0.508 OA
ATOM     16  H   UNL     1      -4.208   0.939 -32.142  1.00  0.00     0.293 HD
ENDBRANCH   2  15
BRANCH   4  17
ATOM     17  O   UNL     1      -5.283   4.587 -28.153  1.00  0.00    -0.508 OA
ATOM     18  H   UNL     1      -5.862   5.282 -28.508  1.00  0.00     0.293 HD
ENDBRANCH   4  17
TORSDOF 4
ENDMDL
MODEL 8
REMARK VINA RESULT:      -6.6      2.308      3.265
REMARK SMILES C[C@@H](c1ccccc1)c1ccc(O)cc1O
REMARK SMILES IDX 9 1 15 2 14 3 12 4 11 5 10 6 2 7 1 8 3 9 4 10 8 11 5 12 7 13
REMARK SMILES IDX 6 14 16 15 13 17
REMARK H PARENT 16 16 13 18
ROOT
ATOM      1  C   UNL     1      -5.607   0.421 -29.944  1.00  0.00     0.001 A 
ATOM      2  C   UNL     1      -5.330   0.725 -28.601  1.00  0.00     0.123 A 
ATOM      3  C   UNL     1      -5.227  -0.278 -27.635  1.00  0.00     0.092 A 
ATOM      4  C   UNL     1      -5.383  -1.606 -28.008  1.00  0.00     0.119 A 
ATOM      5  C   UNL     1      -5.645  -1.944 -29.328  1.00  0.00     0.047 A 
ATOM      6  C   UNL     1      -5.760  -0.937 -30.289  1.00  0.00     0.012 A 
ENDROOT
BRANCH   1   7
ATOM      7  C   UNL     1      -5.812   1.468 -31.041  1.00  0.00     0.050 C 
ATOM      8  C   UNL     1      -4.547   1.536 -31.912  1.00  0.00     0.018 C 
BRANCH   7   9
ATOM      9  C   UNL     1      -7.134   1.320 -31.796  1.00  0.00    -0.041 A 
ATOM     10  C   UNL     1      -7.209   0.894 -33.132  1.00  0.00     0.004 A 
ATOM     11  C   UNL     1      -8.336   1.644 -31.140  1.00  0.00     0.004 A 
ATOM     12  C   UNL     1      -8.442   0.774 -33.779  1.00  0.00     0.000 A 
ATOM     13  C   UNL     1      -9.568   1.522 -31.787  1.00  0.00     0.000 A 
ATOM     14  C   UNL     1      -9.620   1.084 -33.105  1.00  0.00     0.000 A 
ENDBRANCH   7   9
ENDBRANCH   1   7
BRANCH   2  15
ATOM     15  O   UNL     1      -5.149   1.999 -28.142  1.00  0.00    -0.508 OA
ATOM     16  H   UNL     1      -5.879   2.215 -27.539  1.00  0.00     0.293 HD
ENDBRANCH   2  15
BRANCH   4  17
ATOM     17  O   UNL     1      -5.284  -2.618 -27.099  1.00  0.00    -0.508 OA
ATOM     18  H   UNL     1      -6.178  -2.947 -26.910  1.00  0.00     0.293 HD
ENDBRANCH   4  17
TORSDOF 4
ENDMDL
MODEL 9
REMARK VINA RESULT:      -6.6      3.430      6.254
REMARK SMILES C[C@@H](c1ccccc1)c1ccc(O)cc1O
REMARK SMILES IDX 9 1 15 2 14 3 12 4 11 5 10 6 2 7 1 8 3 9 4 10 8 11 5 12 7 13
REMARK SMILES IDX 6 14 16 15 13 17
REMARK H PARENT 16 16 13 18
ROOT
ATOM      1  C   UNL     1      -8.951  -1.702 -30.451  1.00  0.00     0.001 A 
ATOM      2  C   UNL     1      -9.781  -0.733 -29.866  1.00  0.00     0.123 A 
ATOM      3  C   UNL     1     -10.466   0.204 -30.643  1.00  0.00     0.092 A 
ATOM      4  C   UNL     1     -10.341   0.168 -32.026  1.00  0.00     0.119 A 
ATOM      5  C   UNL     1      -9.540  -0.784 -32.639  1.00  0.00     0.047 A 
ATOM      6  C   UNL     1      -8.846  -1.710 -31.857  1.00  0.00     0.012 A 
ENDROOT
BRANCH   1   7
ATOM      7  C   UNL     1      -8.110  -2.708 -29.663  1.00  0.00     0.050 C 
ATOM      8  C   UNL     1      -8.193  -4.080 -30.351  1.00  0.00     0.018 C 
BRANCH   7   9
ATOM      9  C   UNL     1      -6.702  -2.211 -29.333  1.00  0.00    -0.041 A 
ATOM     10  C   UNL     1      -5.897  -1.523 -30.256  1.00  0.00     0.004 A 
ATOM     11  C   UNL     1      -6.168  -2.466 -28.056  1.00  0.00     0.004 A 
ATOM     12  C   UNL     1      -4.616  -1.088 -29.907  1.00  0.00     0.000 A 
ATOM     13  C   UNL     1      -4.888  -2.029 -27.708  1.00  0.00     0.000 A 
ATOM     14  C   UNL     1      -4.114  -1.338 -28.633  1.00  0.00     0.000 A 
ENDBRANCH   7   9
ENDBRANCH   1   7
BRANCH   2  15
ATOM     15  O   UNL     1      -9.977  -0.627 -28.518  1.00  0.00    -0.508 OA
ATOM     16  H   UNL     1      -9.220  -0.155 -28.133  1.00  0.00     0.293 HD
ENDBRANCH   2  15
BRANCH   4  17
ATOM     17  O   UNL     1     -10.997   1.059 -32.823  1.00  0.00    -0.508 OA
ATOM     18  H   UNL     1     -10.427   1.836 -32.945  1.00  0.00     0.293 HD
ENDBRANCH   4  17
TORSDOF 4
ENDMDL
MODEL 10
REMARK VINA RESULT:      -6.5      4.083      6.600
REMARK SMILES C[C@@H](c1ccccc1)c1ccc(O)cc1O
REMARK SMILES IDX 9 1 15 2 14 3 12 4 11 5 10 6 2 7 1 8 3 9 4 10 8 11 5 12 7 13
REMARK SMILES IDX 6 14 16 15 13 17
REMARK H PARENT 16 16 13 18
ROOT
ATOM      1  C   UNL     1      -8.887  -3.133 -28.972  1.00  0.00     0.001 A 
ATOM      2  C   UNL     1      -8.812  -4.298 -29.754  1.00  0.00     0.123 A 
ATOM      3  C   UNL     1      -9.407  -5.491 -29.340  1.00  0.00     0.092 A 
ATOM      4  C   UNL     1     -10.106  -5.527 -28.140  1.00  0.00     0.119 A 
ATOM      5  C   UNL     1     -10.212  -4.392 -27.349  1.00  0.00     0.047 A 
ATOM      6  C   UNL     1      -9.604  -3.204 -27.761  1.00  0.00     0.012 A 
ENDROOT
BRANCH   1   7
ATOM      7  C   UNL     1      -8.196  -1.813 -29.321  1.00  0.00     0.050 C 
ATOM      8  C   UNL     1      -9.034  -0.648 -28.772  1.00  0.00     0.018 C 
BRANCH   7   9
ATOM      9  C   UNL     1      -6.707  -1.786 -28.974  1.00  0.00    -0.041 A 
ATOM     10  C   UNL     1      -6.229  -1.771 -27.654  1.00  0.00     0.004 A 
ATOM     11  C   UNL     1      -5.762  -1.754 -30.016  1.00  0.00     0.004 A 
ATOM     12  C   UNL     1      -4.858  -1.747 -27.387  1.00  0.00     0.000 A 
ATOM     13  C   UNL     1      -4.392  -1.732 -29.749  1.00  0.00     0.000 A 
ATOM     14  C   UNL     1      -3.940  -1.731 -28.434  1.00  0.00     0.000 A 
ENDBRANCH   7   9
ENDBRANCH   1   7
BRANCH   2  15
ATOM     15  O   UNL     1      -8.158  -4.356 -30.952  1.00  0.00    -0.508 OA
ATOM     16  H   UNL     1      -8.812  -4.262 -31.664  1.00  0.00     0.293 HD
ENDBRANCH   2  15
BRANCH   4  17
ATOM     17  O   UNL     1     -10.708  -6.669 -27.701  1.00  0.00    -0.508 OA
ATOM     18  H   UNL     1     -11.045  -7.153 -28.473  1.00  0.00     0.293 HD
ENDBRANCH   4  17
TORSDOF 4
ENDMDL
