MODEL 1
REMARK VINA RESULT:      -6.9      0.000      0.000
REMARK SMILES O=C/C=C/c1ccc(O)cc1
REMARK SMILES IDX 6 1 7 2 8 3 10 4 11 5 5 6 4 7 3 8 2 9 1 10 9 11
REMARK H PARENT 9 12
ROOT
ATOM      1  C   UNL     1       8.005  -0.674 -19.034  1.00  0.00     0.012 A 
ATOM      2  C   UNL     1       8.443  -0.030 -17.873  1.00  0.00     0.047 A 
ATOM      3  C   UNL     1       7.768  -0.243 -16.677  1.00  0.00     0.115 A 
ATOM      4  C   UNL     1       6.670  -1.092 -16.623  1.00  0.00     0.047 A 
ATOM      5  C   UNL     1       6.234  -1.734 -17.784  1.00  0.00     0.012 A 
ATOM      6  C   UNL     1       6.888  -1.522 -19.006  1.00  0.00    -0.025 A 
ENDROOT
BRANCH   6   7
ATOM      7  C   UNL     1       6.414  -2.244 -20.196  1.00  0.00     0.011 C 
ATOM      8  C   UNL     1       5.651  -1.689 -21.148  1.00  0.00     0.044 C 
BRANCH   8   9
ATOM      9  C   UNL     1       5.214  -2.492 -22.306  1.00  0.00     0.252 C 
ATOM     10  O   UNL     1       5.106  -1.997 -23.420  1.00  0.00    -0.299 OA
ENDBRANCH   8   9
ENDBRANCH   6   7
BRANCH   3  11
ATOM     11  O   UNL     1       8.161   0.362 -15.520  1.00  0.00    -0.508 OA
ATOM     12  H   UNL     1       8.137  -0.293 -14.803  1.00  0.00     0.293 HD
ENDBRANCH   3  11
TORSDOF 3
ENDMDL
MODEL 2
REMARK VINA RESULT:      -5.8     13.429     14.202
REMARK SMILES O=C/C=C/c1ccc(O)cc1
REMARK SMILES IDX 6 1 7 2 8 3 10 4 11 5 5 6 4 7 3 8 2 9 1 10 9 11
REMARK H PARENT 9 12
ROOT
ATOM      1  C   UNL     1      -3.365   0.493 -27.020  1.00  0.00     0.012 A 
ATOM      2  C   UNL     1      -2.488   0.837 -28.053  1.00  0.00     0.047 A 
ATOM      3  C   UNL     1      -2.346  -0.014 -29.142  1.00  0.00     0.115 A 
ATOM      4  C   UNL     1      -3.070  -1.198 -29.216  1.00  0.00     0.047 A 
ATOM      5  C   UNL     1      -3.945  -1.540 -28.183  1.00  0.00     0.012 A 
ATOM      6  C   UNL     1      -4.094  -0.705 -27.066  1.00  0.00    -0.025 A 
ENDROOT
BRANCH   6   7
ATOM      7  C   UNL     1      -5.050  -1.089 -26.018  1.00  0.00     0.011 C 
ATOM      8  C   UNL     1      -5.327  -0.329 -24.950  1.00  0.00     0.044 C 
BRANCH   8   9
ATOM      9  C   UNL     1      -6.297  -0.798 -23.941  1.00  0.00     0.252 C 
ATOM     10  O   UNL     1      -6.773  -1.924 -23.993  1.00  0.00    -0.299 OA
ENDBRANCH   8   9
ENDBRANCH   6   7
BRANCH   3  11
ATOM     11  O   UNL     1      -1.504   0.281 -30.172  1.00  0.00    -0.508 OA
ATOM     12  H   UNL     1      -0.827  -0.413 -30.228  1.00  0.00     0.293 HD
ENDBRANCH   3  11
TORSDOF 3
ENDMDL
MODEL 3
REMARK VINA RESULT:      -5.8     13.464     14.249
REMARK SMILES O=C/C=C/c1ccc(O)cc1
REMARK SMILES IDX 6 1 7 2 8 3 10 4 11 5 5 6 4 7 3 8 2 9 1 10 9 11
REMARK H PARENT 9 12
ROOT
ATOM      1  C   UNL     1      -3.982  -1.661 -28.218  1.00  0.00     0.012 A 
ATOM      2  C   UNL     1      -3.088  -1.286 -29.225  1.00  0.00     0.047 A 
ATOM      3  C   UNL     1      -2.394  -0.087 -29.112  1.00  0.00     0.115 A 
ATOM      4  C   UNL     1      -2.576   0.737 -28.009  1.00  0.00     0.047 A 
ATOM      5  C   UNL     1      -3.470   0.361 -27.004  1.00  0.00     0.012 A 
ATOM      6  C   UNL     1      -4.194  -0.836 -27.103  1.00  0.00    -0.025 A 
ENDROOT
BRANCH   6   7
ATOM      7  C   UNL     1      -5.100  -1.207 -26.006  1.00  0.00     0.011 C 
ATOM      8  C   UNL     1      -5.396  -0.398 -24.980  1.00  0.00     0.044 C 
BRANCH   8   9
ATOM      9  C   UNL     1      -6.311  -0.858 -23.917  1.00  0.00     0.252 C 
ATOM     10  O   UNL     1      -6.845  -1.958 -23.970  1.00  0.00    -0.299 OA
ENDBRANCH   8   9
ENDBRANCH   6   7
BRANCH   3  11
ATOM     11  O   UNL     1      -1.511   0.318 -30.068  1.00  0.00    -0.508 OA
ATOM     12  H   UNL     1      -1.527  -0.324 -30.798  1.00  0.00     0.293 HD
ENDBRANCH   3  11
TORSDOF 3
ENDMDL
MODEL 4
REMARK VINA RESULT:      -5.7      3.186      6.887
REMARK SMILES O=C/C=C/c1ccc(O)cc1
REMARK SMILES IDX 6 1 7 2 8 3 10 4 11 5 5 6 4 7 3 8 2 9 1 10 9 11
REMARK H PARENT 9 12
ROOT
ATOM      1  C   UNL     1       3.361  -1.969 -23.536  1.00  0.00     0.012 A 
ATOM      2  C   UNL     1       3.092  -1.320 -24.745  1.00  0.00     0.047 A 
ATOM      3  C   UNL     1       4.138  -0.761 -25.469  1.00  0.00     0.115 A 
ATOM      4  C   UNL     1       5.446  -0.845 -25.007  1.00  0.00     0.047 A 
ATOM      5  C   UNL     1       5.712  -1.494 -23.799  1.00  0.00     0.012 A 
ATOM      6  C   UNL     1       4.672  -2.051 -23.042  1.00  0.00    -0.025 A 
ENDROOT
BRANCH   6   7
ATOM      7  C   UNL     1       5.002  -2.752 -21.793  1.00  0.00     0.011 C 
ATOM      8  C   UNL     1       6.021  -2.407 -20.994  1.00  0.00     0.044 C 
BRANCH   8   9
ATOM      9  C   UNL     1       6.284  -3.174 -19.761  1.00  0.00     0.252 C 
ATOM     10  O   UNL     1       6.304  -2.630 -18.665  1.00  0.00    -0.299 OA
ENDBRANCH   8   9
ENDBRANCH   6   7
BRANCH   3  11
ATOM     11  O   UNL     1       3.924  -0.121 -26.653  1.00  0.00    -0.508 OA
ATOM     12  H   UNL     1       4.256  -0.681 -27.374  1.00  0.00     0.293 HD
ENDBRANCH   3  11
TORSDOF 3
ENDMDL
MODEL 5
REMARK VINA RESULT:      -5.5     16.321     19.876
REMARK SMILES O=C/C=C/c1ccc(O)cc1
REMARK SMILES IDX 6 1 7 2 8 3 10 4 11 5 5 6 4 7 3 8 2 9 1 10 9 11
REMARK H PARENT 9 12
ROOT
ATOM      1  C   UNL     1      -7.987   1.674 -31.228  1.00  0.00     0.012 A 
ATOM      2  C   UNL     1      -9.346   1.863 -31.500  1.00  0.00     0.047 A 
ATOM      3  C   UNL     1      -9.846   1.523 -32.751  1.00  0.00     0.115 A 
ATOM      4  C   UNL     1      -9.014   0.993 -33.729  1.00  0.00     0.047 A 
ATOM      5  C   UNL     1      -7.658   0.805 -33.455  1.00  0.00     0.012 A 
ATOM      6  C   UNL     1      -7.125   1.156 -32.206  1.00  0.00    -0.025 A 
ENDROOT
BRANCH   6   7
ATOM      7  C   UNL     1      -5.698   0.910 -31.951  1.00  0.00     0.011 C 
ATOM      8  C   UNL     1      -5.245   0.013 -31.065  1.00  0.00     0.044 C 
BRANCH   8   9
ATOM      9  C   UNL     1      -3.793  -0.161 -30.868  1.00  0.00     0.252 C 
ATOM     10  O   UNL     1      -3.156  -0.981 -31.516  1.00  0.00    -0.299 OA
ENDBRANCH   8   9
ENDBRANCH   6   7
BRANCH   3  11
ATOM     11  O   UNL     1     -11.164   1.688 -33.060  1.00  0.00    -0.508 OA
ATOM     12  H   UNL     1     -11.610   0.829 -32.990  1.00  0.00     0.293 HD
ENDBRANCH   3  11
TORSDOF 3
ENDMDL
MODEL 6
REMARK VINA RESULT:      -5.5     13.030     14.676
REMARK SMILES O=C/C=C/c1ccc(O)cc1
REMARK SMILES IDX 6 1 7 2 8 3 10 4 11 5 5 6 4 7 3 8 2 9 1 10 9 11
REMARK H PARENT 9 12
ROOT
ATOM      1  C   UNL     1      -1.008  -8.933 -26.127  1.00  0.00     0.012 A 
ATOM      2  C   UNL     1      -2.044  -8.540 -26.980  1.00  0.00     0.047 A 
ATOM      3  C   UNL     1      -2.474  -9.406 -27.979  1.00  0.00     0.115 A 
ATOM      4  C   UNL     1      -1.890 -10.657 -28.133  1.00  0.00     0.047 A 
ATOM      5  C   UNL     1      -0.856 -11.047 -27.279  1.00  0.00     0.012 A 
ATOM      6  C   UNL     1      -0.393 -10.185 -26.275  1.00  0.00    -0.025 A 
ENDROOT
BRANCH   6   7
ATOM      7  C   UNL     1       0.676 -10.650 -25.379  1.00  0.00     0.011 C 
ATOM      8  C   UNL     1       0.738 -11.892 -24.879  1.00  0.00     0.044 C 
BRANCH   8   9
ATOM      9  C   UNL     1       1.845 -12.270 -23.979  1.00  0.00     0.252 C 
ATOM     10  O   UNL     1       2.265 -11.497 -23.127  1.00  0.00    -0.299 OA
ENDBRANCH   8   9
ENDBRANCH   6   7
BRANCH   3  11
ATOM     11  O   UNL     1      -3.480  -9.066 -28.832  1.00  0.00    -0.508 OA
ATOM     12  H   UNL     1      -3.658  -8.115 -28.740  1.00  0.00     0.293 HD
ENDBRANCH   3  11
TORSDOF 3
ENDMDL
MODEL 7
REMARK VINA RESULT:      -5.4     13.073     14.937
REMARK SMILES O=C/C=C/c1ccc(O)cc1
REMARK SMILES IDX 6 1 7 2 8 3 10 4 11 5 5 6 4 7 3 8 2 9 1 10 9 11
REMARK H PARENT 9 12
ROOT
ATOM      1  C   UNL     1      -4.673  -0.436 -26.977  1.00  0.00     0.012 A 
ATOM      2  C   UNL     1      -3.576   0.425 -26.876  1.00  0.00     0.047 A 
ATOM      3  C   UNL     1      -2.554   0.343 -27.815  1.00  0.00     0.115 A 
ATOM      4  C   UNL     1      -2.615  -0.579 -28.852  1.00  0.00     0.047 A 
ATOM      5  C   UNL     1      -3.711  -1.438 -28.950  1.00  0.00     0.012 A 
ATOM      6  C   UNL     1      -4.747  -1.387 -28.006  1.00  0.00    -0.025 A 
ENDROOT
BRANCH   6   7
ATOM      7  C   UNL     1      -5.898  -2.288 -28.168  1.00  0.00     0.011 C 
ATOM      8  C   UNL     1      -6.600  -2.400 -29.303  1.00  0.00     0.044 C 
BRANCH   8   9
ATOM      9  C   UNL     1      -7.748  -3.326 -29.372  1.00  0.00     0.252 C 
ATOM     10  O   UNL     1      -8.129  -3.941 -28.385  1.00  0.00    -0.299 OA
ENDBRANCH   8   9
ENDBRANCH   6   7
BRANCH   3  11
ATOM     11  O   UNL     1      -1.467   1.163 -27.757  1.00  0.00    -0.508 OA
ATOM     12  H   UNL     1      -0.856   0.821 -27.083  1.00  0.00     0.293 HD
ENDBRANCH   3  11
TORSDOF 3
ENDMDL
MODEL 8
REMARK VINA RESULT:      -5.4      5.567      7.402
REMARK SMILES O=C/C=C/c1ccc(O)cc1
REMARK SMILES IDX 6 1 7 2 8 3 10 4 11 5 5 6 4 7 3 8 2 9 1 10 9 11
REMARK H PARENT 9 12
ROOT
ATOM      1  C   UNL     1       3.280  -0.981 -25.248  1.00  0.00     0.012 A 
ATOM      2  C   UNL     1       2.944  -1.723 -24.111  1.00  0.00     0.047 A 
ATOM      3  C   UNL     1       3.952  -2.196 -23.281  1.00  0.00     0.115 A 
ATOM      4  C   UNL     1       5.287  -1.936 -23.565  1.00  0.00     0.047 A 
ATOM      5  C   UNL     1       5.620  -1.195 -24.701  1.00  0.00     0.012 A 
ATOM      6  C   UNL     1       4.622  -0.720 -25.564  1.00  0.00    -0.025 A 
ENDROOT
BRANCH   6   7
ATOM      7  C   UNL     1       5.017   0.083 -26.730  1.00  0.00     0.011 C 
ATOM      8  C   UNL     1       6.291   0.309 -27.079  1.00  0.00     0.044 C 
BRANCH   8   9
ATOM      9  C   UNL     1       6.595   1.136 -28.263  1.00  0.00     0.252 C 
ATOM     10  O   UNL     1       5.880   1.114 -29.256  1.00  0.00    -0.299 OA
ENDBRANCH   8   9
ENDBRANCH   6   7
BRANCH   3  11
ATOM     11  O   UNL     1       3.672  -2.922 -22.162  1.00  0.00    -0.508 OA
ATOM     12  H   UNL     1       3.653  -2.322 -21.399  1.00  0.00     0.293 HD
ENDBRANCH   3  11
TORSDOF 3
ENDMDL
MODEL 9
REMARK VINA RESULT:      -5.4      5.419      8.465
REMARK SMILES O=C/C=C/c1ccc(O)cc1
REMARK SMILES IDX 6 1 7 2 8 3 10 4 11 5 5 6 4 7 3 8 2 9 1 10 9 11
REMARK H PARENT 9 12
ROOT
ATOM      1  C   UNL     1       4.865  -0.862 -26.901  1.00  0.00     0.012 A 
ATOM      2  C   UNL     1       5.168  -0.279 -28.136  1.00  0.00     0.047 A 
ATOM      3  C   UNL     1       6.087   0.762 -28.193  1.00  0.00     0.115 A 
ATOM      4  C   UNL     1       6.710   1.223 -27.040  1.00  0.00     0.047 A 
ATOM      5  C   UNL     1       6.406   0.639 -25.809  1.00  0.00     0.012 A 
ATOM      6  C   UNL     1       5.470  -0.401 -25.722  1.00  0.00    -0.025 A 
ENDROOT
BRANCH   6   7
ATOM      7  C   UNL     1       5.205  -1.007 -24.409  1.00  0.00     0.011 C 
ATOM      8  C   UNL     1       4.442  -2.095 -24.234  1.00  0.00     0.044 C 
BRANCH   8   9
ATOM      9  C   UNL     1       4.223  -2.631 -22.876  1.00  0.00     0.252 C 
ATOM     10  O   UNL     1       5.111  -2.615 -22.035  1.00  0.00    -0.299 OA
ENDBRANCH   8   9
ENDBRANCH   6   7
BRANCH   3  11
ATOM     11  O   UNL     1       6.414   1.360 -29.374  1.00  0.00    -0.508 OA
ATOM     12  H   UNL     1       6.047   2.259 -29.379  1.00  0.00     0.293 HD
ENDBRANCH   3  11
TORSDOF 3
ENDMDL
MODEL 10
REMARK VINA RESULT:      -5.3      2.149      5.839
REMARK SMILES O=C/C=C/c1ccc(O)cc1
REMARK SMILES IDX 6 1 7 2 8 3 10 4 11 5 5 6 4 7 3 8 2 9 1 10 9 11
REMARK H PARENT 9 12
ROOT
ATOM      1  C   UNL     1       6.603  -1.102 -16.755  1.00  0.00     0.012 A 
ATOM      2  C   UNL     1       6.088  -2.159 -17.511  1.00  0.00     0.047 A 
ATOM      3  C   UNL     1       6.522  -2.340 -18.819  1.00  0.00     0.115 A 
ATOM      4  C   UNL     1       7.464  -1.485 -19.379  1.00  0.00     0.047 A 
ATOM      5  C   UNL     1       7.976  -0.430 -18.622  1.00  0.00     0.012 A 
ATOM      6  C   UNL     1       7.543  -0.217 -17.306  1.00  0.00    -0.025 A 
ENDROOT
BRANCH   6   7
ATOM      7  C   UNL     1       8.134   0.887 -16.535  1.00  0.00     0.011 C 
ATOM      8  C   UNL     1       9.368   0.853 -16.015  1.00  0.00     0.044 C 
BRANCH   8   9
ATOM      9  C   UNL     1       9.877   2.006 -15.247  1.00  0.00     0.252 C 
ATOM     10  O   UNL     1      10.257   1.882 -14.091  1.00  0.00    -0.299 OA
ENDBRANCH   8   9
ENDBRANCH   6   7
BRANCH   3  11
ATOM     11  O   UNL     1       6.048  -3.357 -19.593  1.00  0.00    -0.508 OA
ATOM     12  H   UNL     1       6.209  -4.198 -19.133  1.00  0.00     0.293 HD
ENDBRANCH   3  11
TORSDOF 3
ENDMDL
