MODEL 1
REMARK VINA RESULT:      -6.6      0.000      0.000
REMARK SMILES C=C(C)[C@H]1C=CC[C@H](C)C1
REMARK SMILES IDX 9 1 8 2 7 3 6 4 5 5 4 6 10 7 2 8 1 9 3 10
REMARK H PARENT
ROOT
ATOM      1  C   UNL     1       7.415   1.252 -17.165  1.00  0.00     0.008 C 
ATOM      2  C   UNL     1       8.215  -0.047 -17.309  1.00  0.00    -0.010 C 
ATOM      3  C   UNL     1       7.821  -1.078 -16.235  1.00  0.00     0.030 C 
ATOM      4  C   UNL     1       6.560  -1.826 -16.555  1.00  0.00    -0.030 C 
ATOM      5  C   UNL     1       6.021  -1.864 -17.783  1.00  0.00    -0.023 C 
ATOM      6  C   UNL     1       6.637  -1.191 -18.988  1.00  0.00     0.037 C 
ATOM      7  C   UNL     1       8.063  -0.661 -18.711  1.00  0.00     0.015 C 
ENDROOT
BRANCH   6   8
ATOM      8  C   UNL     1       6.616  -2.096 -20.216  1.00  0.00    -0.074 C 
ATOM      9  C   UNL     1       7.489  -3.112 -20.348  1.00  0.00     0.008 C 
ATOM     10  C   UNL     1       5.593  -1.821 -21.289  1.00  0.00     0.039 C 
ENDBRANCH   6   8
TORSDOF 1
ENDMDL
MODEL 2
REMARK VINA RESULT:      -5.4      1.504      4.134
REMARK SMILES C=C(C)[C@H]1C=CC[C@H](C)C1
REMARK SMILES IDX 9 1 8 2 7 3 6 4 5 5 4 6 10 7 2 8 1 9 3 10
REMARK H PARENT
ROOT
ATOM      1  C   UNL     1       7.725  -2.219 -19.552  1.00  0.00     0.008 C 
ATOM      2  C   UNL     1       7.219  -0.892 -18.976  1.00  0.00    -0.010 C 
ATOM      3  C   UNL     1       6.072  -1.109 -17.973  1.00  0.00     0.030 C 
ATOM      4  C   UNL     1       6.540  -1.516 -16.606  1.00  0.00    -0.030 C 
ATOM      5  C   UNL     1       7.807  -1.369 -16.190  1.00  0.00    -0.023 C 
ATOM      6  C   UNL     1       8.896  -0.745 -17.031  1.00  0.00     0.037 C 
ATOM      7  C   UNL     1       8.351  -0.085 -18.318  1.00  0.00     0.015 C 
ENDROOT
BRANCH   6   8
ATOM      8  C   UNL     1       9.743   0.235 -16.227  1.00  0.00    -0.074 C 
ATOM      9  C   UNL     1      11.034  -0.026 -15.947  1.00  0.00     0.008 C 
ATOM     10  C   UNL     1       9.097   1.507 -15.741  1.00  0.00     0.039 C 
ENDBRANCH   6   8
TORSDOF 1
ENDMDL
MODEL 3
REMARK VINA RESULT:      -5.4     13.617     14.884
REMARK SMILES C=C(C)[C@H]1C=CC[C@H](C)C1
REMARK SMILES IDX 9 1 8 2 7 3 6 4 5 5 4 6 10 7 2 8 1 9 3 10
REMARK H PARENT
ROOT
ATOM      1  C   UNL     1      -3.885   0.571 -30.807  1.00  0.00     0.008 C 
ATOM      2  C   UNL     1      -3.048  -0.457 -30.038  1.00  0.00    -0.010 C 
ATOM      3  C   UNL     1      -1.795   0.184 -29.414  1.00  0.00     0.030 C 
ATOM      4  C   UNL     1      -2.069   0.911 -28.130  1.00  0.00    -0.030 C 
ATOM      5  C   UNL     1      -3.189   0.736 -27.412  1.00  0.00    -0.023 C 
ATOM      6  C   UNL     1      -4.282  -0.237 -27.792  1.00  0.00     0.037 C 
ATOM      7  C   UNL     1      -3.872  -1.171 -28.953  1.00  0.00     0.015 C 
ENDROOT
BRANCH   6   8
ATOM      8  C   UNL     1      -4.772  -1.036 -26.590  1.00  0.00    -0.074 C 
ATOM      9  C   UNL     1      -5.030  -2.354 -26.687  1.00  0.00     0.008 C 
ATOM     10  C   UNL     1      -4.971  -0.313 -25.282  1.00  0.00     0.039 C 
ENDBRANCH   6   8
TORSDOF 1
ENDMDL
MODEL 4
REMARK VINA RESULT:      -5.2      2.154      4.705
REMARK SMILES C=C(C)[C@H]1C=CC[C@H](C)C1
REMARK SMILES IDX 9 1 8 2 7 3 6 4 5 5 4 6 10 7 2 8 1 9 3 10
REMARK H PARENT
ROOT
ATOM      1  C   UNL     1       7.791  -0.884 -18.946  1.00  0.00     0.008 C 
ATOM      2  C   UNL     1       7.396  -0.002 -17.756  1.00  0.00    -0.010 C 
ATOM      3  C   UNL     1       6.806  -0.834 -16.604  1.00  0.00     0.030 C 
ATOM      4  C   UNL     1       7.846  -1.503 -15.754  1.00  0.00    -0.030 C 
ATOM      5  C   UNL     1       9.140  -1.149 -15.761  1.00  0.00    -0.023 C 
ATOM      6  C   UNL     1       9.691  -0.014 -16.594  1.00  0.00     0.037 C 
ATOM      7  C   UNL     1       8.581   0.839 -17.249  1.00  0.00     0.015 C 
ENDROOT
BRANCH   6   8
ATOM      8  C   UNL     1      10.656   0.857 -15.797  1.00  0.00    -0.074 C 
ATOM      9  C   UNL     1      11.974   0.586 -15.764  1.00  0.00     0.008 C 
ATOM     10  C   UNL     1      10.097   2.032 -15.036  1.00  0.00     0.039 C 
ENDBRANCH   6   8
TORSDOF 1
ENDMDL
MODEL 5
REMARK VINA RESULT:      -5.2      2.039      3.359
REMARK SMILES C=C(C)[C@H]1C=CC[C@H](C)C1
REMARK SMILES IDX 9 1 8 2 7 3 6 4 5 5 4 6 10 7 2 8 1 9 3 10
REMARK H PARENT
ROOT
ATOM      1  C   UNL     1       9.586   2.083 -14.826  1.00  0.00     0.008 C 
ATOM      2  C   UNL     1      10.104   1.338 -16.061  1.00  0.00    -0.010 C 
ATOM      3  C   UNL     1      11.015   0.159 -15.672  1.00  0.00     0.030 C 
ATOM      4  C   UNL     1      10.261  -1.070 -15.255  1.00  0.00    -0.030 C 
ATOM      5  C   UNL     1       8.960  -1.258 -15.521  1.00  0.00    -0.023 C 
ATOM      6  C   UNL     1       8.115  -0.276 -16.300  1.00  0.00     0.037 C 
ATOM      7  C   UNL     1       8.955   0.844 -16.956  1.00  0.00     0.015 C 
ENDROOT
BRANCH   6   8
ATOM      8  C   UNL     1       7.234  -0.977 -17.329  1.00  0.00    -0.074 C 
ATOM      9  C   UNL     1       6.168  -1.706 -16.951  1.00  0.00     0.008 C 
ATOM     10  C   UNL     1       7.590  -0.840 -18.787  1.00  0.00     0.039 C 
ENDBRANCH   6   8
TORSDOF 1
ENDMDL
MODEL 6
REMARK VINA RESULT:      -5.1     18.230     20.805
REMARK SMILES C=C(C)[C@H]1C=CC[C@H](C)C1
REMARK SMILES IDX 9 1 8 2 7 3 6 4 5 5 4 6 10 7 2 8 1 9 3 10
REMARK H PARENT
ROOT
ATOM      1  C   UNL     1     -10.164   1.446 -32.937  1.00  0.00     0.008 C 
ATOM      2  C   UNL     1      -9.278   0.377 -33.586  1.00  0.00    -0.010 C 
ATOM      3  C   UNL     1      -7.852   0.900 -33.841  1.00  0.00     0.030 C 
ATOM      4  C   UNL     1      -6.978   0.875 -32.621  1.00  0.00    -0.030 C 
ATOM      5  C   UNL     1      -7.268   0.160 -31.524  1.00  0.00    -0.023 C 
ATOM      6  C   UNL     1      -8.485  -0.728 -31.403  1.00  0.00     0.037 C 
ATOM      7  C   UNL     1      -9.226  -0.911 -32.747  1.00  0.00     0.015 C 
ENDROOT
BRANCH   6   8
ATOM      8  C   UNL     1      -8.144  -2.076 -30.775  1.00  0.00    -0.074 C 
ATOM      9  C   UNL     1      -8.985  -3.122 -30.870  1.00  0.00     0.008 C 
ATOM     10  C   UNL     1      -6.837  -2.209 -30.035  1.00  0.00     0.039 C 
ENDBRANCH   6   8
TORSDOF 1
ENDMDL
MODEL 7
REMARK VINA RESULT:      -5.1      0.904      2.121
REMARK SMILES C=C(C)[C@H]1C=CC[C@H](C)C1
REMARK SMILES IDX 9 1 8 2 7 3 6 4 5 5 4 6 10 7 2 8 1 9 3 10
REMARK H PARENT
ROOT
ATOM      1  C   UNL     1       8.328  -1.571 -15.717  1.00  0.00     0.008 C 
ATOM      2  C   UNL     1       7.145  -0.816 -16.333  1.00  0.00    -0.010 C 
ATOM      3  C   UNL     1       7.577   0.546 -16.904  1.00  0.00     0.030 C 
ATOM      4  C   UNL     1       8.215   0.454 -18.259  1.00  0.00    -0.030 C 
ATOM      5  C   UNL     1       8.111  -0.626 -19.048  1.00  0.00    -0.023 C 
ATOM      6  C   UNL     1       7.311  -1.855 -18.681  1.00  0.00     0.037 C 
ATOM      7  C   UNL     1       6.441  -1.646 -17.421  1.00  0.00     0.015 C 
ENDROOT
BRANCH   6   8
ATOM      8  C   UNL     1       6.473  -2.357 -19.852  1.00  0.00    -0.074 C 
ATOM      9  C   UNL     1       5.967  -3.604 -19.863  1.00  0.00     0.008 C 
ATOM     10  C   UNL     1       6.229  -1.421 -21.008  1.00  0.00     0.039 C 
ENDBRANCH   6   8
TORSDOF 1
ENDMDL
MODEL 8
REMARK VINA RESULT:      -5.1     13.822     14.898
REMARK SMILES C=C(C)[C@H]1C=CC[C@H](C)C1
REMARK SMILES IDX 9 1 8 2 7 3 6 4 5 5 4 6 10 7 2 8 1 9 3 10
REMARK H PARENT
ROOT
ATOM      1  C   UNL     1      -5.300  -0.077 -24.426  1.00  0.00     0.008 C 
ATOM      2  C   UNL     1      -5.791  -0.962 -25.577  1.00  0.00    -0.010 C 
ATOM      3  C   UNL     1      -6.916  -0.281 -26.377  1.00  0.00     0.030 C 
ATOM      4  C   UNL     1      -6.420   0.726 -27.372  1.00  0.00    -0.030 C 
ATOM      5  C   UNL     1      -5.144   0.785 -27.783  1.00  0.00    -0.023 C 
ATOM      6  C   UNL     1      -4.072  -0.175 -27.321  1.00  0.00     0.037 C 
ATOM      7  C   UNL     1      -4.643  -1.366 -26.519  1.00  0.00     0.015 C 
ENDROOT
BRANCH   6   8
ATOM      8  C   UNL     1      -3.206  -0.657 -28.480  1.00  0.00    -0.074 C 
ATOM      9  C   UNL     1      -3.419  -1.854 -29.059  1.00  0.00     0.008 C 
ATOM     10  C   UNL     1      -2.092   0.238 -28.961  1.00  0.00     0.039 C 
ENDBRANCH   6   8
TORSDOF 1
ENDMDL
MODEL 9
REMARK VINA RESULT:      -5.0     13.673     15.919
REMARK SMILES C=C(C)[C@H]1C=CC[C@H](C)C1
REMARK SMILES IDX 9 1 8 2 7 3 6 4 5 5 4 6 10 7 2 8 1 9 3 10
REMARK H PARENT
ROOT
ATOM      1  C   UNL     1      -3.405   0.359 -26.855  1.00  0.00     0.008 C 
ATOM      2  C   UNL     1      -2.608   1.242 -27.822  1.00  0.00    -0.010 C 
ATOM      3  C   UNL     1      -1.886   0.404 -28.893  1.00  0.00     0.030 C 
ATOM      4  C   UNL     1      -2.776  -0.020 -30.024  1.00  0.00    -0.030 C 
ATOM      5  C   UNL     1      -3.967   0.546 -30.274  1.00  0.00    -0.023 C 
ATOM      6  C   UNL     1      -4.530   1.697 -29.471  1.00  0.00     0.037 C 
ATOM      7  C   UNL     1      -3.497   2.303 -28.493  1.00  0.00     0.015 C 
ENDROOT
BRANCH   6   8
ATOM      8  C   UNL     1      -5.134   2.772 -30.369  1.00  0.00    -0.074 C 
ATOM      9  C   UNL     1      -4.617   4.014 -30.414  1.00  0.00     0.008 C 
ATOM     10  C   UNL     1      -6.336   2.413 -31.204  1.00  0.00     0.039 C 
ENDBRANCH   6   8
TORSDOF 1
ENDMDL
MODEL 10
REMARK VINA RESULT:      -5.0     13.504     14.933
REMARK SMILES C=C(C)[C@H]1C=CC[C@H](C)C1
REMARK SMILES IDX 9 1 8 2 7 3 6 4 5 5 4 6 10 7 2 8 1 9 3 10
REMARK H PARENT
ROOT
ATOM      1  C   UNL     1      -1.903   0.455 -28.625  1.00  0.00     0.008 C 
ATOM      2  C   UNL     1      -3.398   0.584 -28.935  1.00  0.00    -0.010 C 
ATOM      3  C   UNL     1      -3.921  -0.630 -29.724  1.00  0.00     0.030 C 
ATOM      4  C   UNL     1      -4.208  -1.826 -28.864  1.00  0.00    -0.030 C 
ATOM      5  C   UNL     1      -4.341  -1.757 -27.531  1.00  0.00    -0.023 C 
ATOM      6  C   UNL     1      -4.253  -0.467 -26.748  1.00  0.00     0.037 C 
ATOM      7  C   UNL     1      -4.232   0.782 -27.657  1.00  0.00     0.015 C 
ENDROOT
BRANCH   6   8
ATOM      8  C   UNL     1      -5.354  -0.365 -25.698  1.00  0.00    -0.074 C 
ATOM      9  C   UNL     1      -6.629  -0.685 -25.991  1.00  0.00     0.008 C 
ATOM     10  C   UNL     1      -4.984   0.112 -24.317  1.00  0.00     0.039 C 
ENDBRANCH   6   8
TORSDOF 1
ENDMDL
