MODEL 1
REMARK VINA RESULT:      -7.3      0.000      0.000
REMARK SMILES Oc1ccc(/C=C\c2cc(O)cc(O)c2)cc1
REMARK SMILES IDX 6 1 7 2 5 3 4 4 3 5 2 6 16 7 17 8 1 9 8 11 15 12 9 13 13 14
REMARK SMILES IDX 10 15 12 16 14 17 11 19
REMARK H PARENT 1 10 14 18 11 20
ROOT
ATOM      1  C   UNL     1      -6.524  -2.111 -28.311  1.00  0.00     0.009 C 
ATOM      2  C   UNL     1      -5.220  -2.198 -28.005  1.00  0.00     0.009 C 
ENDROOT
BRANCH   1   3
ATOM      3  C   UNL     1      -7.096  -1.219 -29.323  1.00  0.00    -0.025 A 
ATOM      4  C   UNL     1      -7.444  -1.721 -30.582  1.00  0.00     0.012 A 
ATOM      5  C   UNL     1      -7.992  -0.876 -31.551  1.00  0.00     0.047 A 
ATOM      6  C   UNL     1      -8.184   0.471 -31.255  1.00  0.00     0.115 A 
ATOM      7  C   UNL     1      -7.294   0.138 -29.043  1.00  0.00     0.012 A 
ATOM      8  C   UNL     1      -7.839   0.983 -30.011  1.00  0.00     0.047 A 
BRANCH   6   9
ATOM      9  O   UNL     1      -8.715   1.330 -32.170  1.00  0.00    -0.508 OA
ATOM     10  H   UNL     1      -8.957   2.154 -31.718  1.00  0.00     0.293 HD
ENDBRANCH   6   9
ENDBRANCH   1   3
BRANCH   2  11
ATOM     11  C   UNL     1      -4.159  -1.393 -28.616  1.00  0.00    -0.018 A 
ATOM     12  C   UNL     1      -3.372  -0.547 -27.826  1.00  0.00     0.054 A 
ATOM     13  C   UNL     1      -3.933  -1.461 -29.995  1.00  0.00     0.054 A 
ATOM     14  C   UNL     1      -2.372   0.218 -28.423  1.00  0.00     0.119 A 
ATOM     15  C   UNL     1      -2.933  -0.682 -30.571  1.00  0.00     0.119 A 
ATOM     16  C   UNL     1      -2.145   0.159 -29.794  1.00  0.00     0.092 A 
BRANCH  14  17
ATOM     17  O   UNL     1      -1.581   1.052 -27.686  1.00  0.00    -0.508 OA
ATOM     18  H   UNL     1      -1.681   0.821 -26.748  1.00  0.00     0.293 HD
ENDBRANCH  14  17
BRANCH  15  19
ATOM     19  O   UNL     1      -2.757  -0.773 -31.921  1.00  0.00    -0.508 OA
ATOM     20  H   UNL     1      -3.128  -1.620 -32.221  1.00  0.00     0.293 HD
ENDBRANCH  15  19
ENDBRANCH   2  11
TORSDOF 5
ENDMDL
MODEL 2
REMARK VINA RESULT:      -7.3      0.117      2.010
REMARK SMILES Oc1ccc(/C=C\c2cc(O)cc(O)c2)cc1
REMARK SMILES IDX 6 1 7 2 5 3 4 4 3 5 2 6 16 7 17 8 1 9 8 11 15 12 9 13 13 14
REMARK SMILES IDX 10 15 12 16 14 17 11 19
REMARK H PARENT 1 10 14 18 11 20
ROOT
ATOM      1  C   UNL     1      -6.455  -2.118 -28.203  1.00  0.00     0.009 C 
ATOM      2  C   UNL     1      -5.141  -2.175 -27.934  1.00  0.00     0.009 C 
ENDROOT
BRANCH   1   3
ATOM      3  C   UNL     1      -7.073  -1.265 -29.221  1.00  0.00    -0.025 A 
ATOM      4  C   UNL     1      -7.495  -1.818 -30.435  1.00  0.00     0.012 A 
ATOM      5  C   UNL     1      -8.087  -1.010 -31.410  1.00  0.00     0.047 A 
ATOM      6  C   UNL     1      -8.249   0.351 -31.165  1.00  0.00     0.115 A 
ATOM      7  C   UNL     1      -7.242   0.106 -28.991  1.00  0.00     0.012 A 
ATOM      8  C   UNL     1      -7.830   0.914 -29.965  1.00  0.00     0.047 A 
BRANCH   6   9
ATOM      9  O   UNL     1      -8.820   1.176 -32.088  1.00  0.00    -0.508 OA
ATOM     10  H   UNL     1      -8.151   1.409 -32.751  1.00  0.00     0.293 HD
ENDBRANCH   6   9
ENDBRANCH   1   3
BRANCH   2  11
ATOM     11  C   UNL     1      -4.113  -1.370 -28.600  1.00  0.00    -0.018 A 
ATOM     12  C   UNL     1      -3.934  -1.461 -29.985  1.00  0.00     0.054 A 
ATOM     13  C   UNL     1      -3.301  -0.513 -27.850  1.00  0.00     0.054 A 
ATOM     14  C   UNL     1      -2.946  -0.695 -30.602  1.00  0.00     0.119 A 
ATOM     15  C   UNL     1      -2.316   0.238 -28.487  1.00  0.00     0.119 A 
ATOM     16  C   UNL     1      -2.132   0.156 -29.863  1.00  0.00     0.092 A 
BRANCH  14  17
ATOM     17  O   UNL     1      -2.743  -0.752 -31.951  1.00  0.00    -0.508 OA
ATOM     18  H   UNL     1      -3.183  -1.548 -32.295  1.00  0.00     0.293 HD
ENDBRANCH  14  17
BRANCH  15  19
ATOM     19  O   UNL     1      -1.540   1.052 -27.714  1.00  0.00    -0.508 OA
ATOM     20  H   UNL     1      -1.298   1.832 -28.241  1.00  0.00     0.293 HD
ENDBRANCH  15  19
ENDBRANCH   2  11
TORSDOF 5
ENDMDL
MODEL 3
REMARK VINA RESULT:      -7.1      2.008      3.003
REMARK SMILES Oc1ccc(/C=C\c2cc(O)cc(O)c2)cc1
REMARK SMILES IDX 6 1 7 2 5 3 4 4 3 5 2 6 16 7 17 8 1 9 8 11 15 12 9 13 13 14
REMARK SMILES IDX 10 15 12 16 14 17 11 19
REMARK H PARENT 1 10 14 18 11 20
ROOT
ATOM      1  C   UNL     1      -6.730   2.550 -30.175  1.00  0.00     0.009 C 
ATOM      2  C   UNL     1      -5.620   2.190 -29.510  1.00  0.00     0.009 C 
ENDROOT
BRANCH   1   3
ATOM      3  C   UNL     1      -7.465   1.698 -31.112  1.00  0.00    -0.025 A 
ATOM      4  C   UNL     1      -8.437   0.810 -30.636  1.00  0.00     0.012 A 
ATOM      5  C   UNL     1      -9.143  -0.005 -31.525  1.00  0.00     0.047 A 
ATOM      6  C   UNL     1      -8.870   0.071 -32.889  1.00  0.00     0.115 A 
ATOM      7  C   UNL     1      -7.202   1.761 -32.486  1.00  0.00     0.012 A 
ATOM      8  C   UNL     1      -7.906   0.946 -33.374  1.00  0.00     0.047 A 
BRANCH   6   9
ATOM      9  O   UNL     1      -9.535  -0.705 -33.791  1.00  0.00    -0.508 OA
ATOM     10  H   UNL     1      -8.887  -1.246 -34.270  1.00  0.00     0.293 HD
ENDBRANCH   6   9
ENDBRANCH   1   3
BRANCH   2  11
ATOM     11  C   UNL     1      -4.949   0.893 -29.636  1.00  0.00    -0.018 A 
ATOM     12  C   UNL     1      -5.108  -0.082 -28.645  1.00  0.00     0.054 A 
ATOM     13  C   UNL     1      -4.139   0.629 -30.746  1.00  0.00     0.054 A 
ATOM     14  C   UNL     1      -4.457  -1.307 -28.775  1.00  0.00     0.119 A 
ATOM     15  C   UNL     1      -3.493  -0.600 -30.851  1.00  0.00     0.119 A 
ATOM     16  C   UNL     1      -3.647  -1.576 -29.873  1.00  0.00     0.092 A 
BRANCH  14  17
ATOM     17  O   UNL     1      -4.591  -2.286 -27.833  1.00  0.00    -0.508 OA
ATOM     18  H   UNL     1      -5.536  -2.488 -27.732  1.00  0.00     0.293 HD
ENDBRANCH  14  17
BRANCH  15  19
ATOM     19  O   UNL     1      -2.704  -0.810 -31.945  1.00  0.00    -0.508 OA
ATOM     20  H   UNL     1      -2.110  -0.048 -32.043  1.00  0.00     0.293 HD
ENDBRANCH  15  19
ENDBRANCH   2  11
TORSDOF 5
ENDMDL
MODEL 4
REMARK VINA RESULT:      -7.1      1.993      3.319
REMARK SMILES Oc1ccc(/C=C\c2cc(O)cc(O)c2)cc1
REMARK SMILES IDX 6 1 7 2 5 3 4 4 3 5 2 6 16 7 17 8 1 9 8 11 15 12 9 13 13 14
REMARK SMILES IDX 10 15 12 16 14 17 11 19
REMARK H PARENT 1 10 14 18 11 20
ROOT
ATOM      1  C   UNL     1      -6.780   2.508 -30.041  1.00  0.00     0.009 C 
ATOM      2  C   UNL     1      -5.664   2.152 -29.385  1.00  0.00     0.009 C 
ENDROOT
BRANCH   1   3
ATOM      3  C   UNL     1      -7.487   1.674 -31.017  1.00  0.00    -0.025 A 
ATOM      4  C   UNL     1      -8.436   0.741 -30.582  1.00  0.00     0.012 A 
ATOM      5  C   UNL     1      -9.115  -0.056 -31.507  1.00  0.00     0.047 A 
ATOM      6  C   UNL     1      -8.838   0.082 -32.864  1.00  0.00     0.115 A 
ATOM      7  C   UNL     1      -7.219   1.799 -32.385  1.00  0.00     0.012 A 
ATOM      8  C   UNL     1      -7.896   1.001 -33.309  1.00  0.00     0.047 A 
BRANCH   6   9
ATOM      9  O   UNL     1      -9.477  -0.676 -33.800  1.00  0.00    -0.508 OA
ATOM     10  H   UNL     1      -8.925  -0.712 -34.599  1.00  0.00     0.293 HD
ENDBRANCH   6   9
ENDBRANCH   1   3
BRANCH   2  11
ATOM     11  C   UNL     1      -4.957   0.881 -29.558  1.00  0.00    -0.018 A 
ATOM     12  C   UNL     1      -4.170   0.661 -30.695  1.00  0.00     0.054 A 
ATOM     13  C   UNL     1      -5.073  -0.123 -28.591  1.00  0.00     0.054 A 
ATOM     14  C   UNL     1      -3.510  -0.557 -30.849  1.00  0.00     0.119 A 
ATOM     15  C   UNL     1      -4.411  -1.335 -28.770  1.00  0.00     0.119 A 
ATOM     16  C   UNL     1      -3.624  -1.561 -29.894  1.00  0.00     0.092 A 
BRANCH  14  17
ATOM     17  O   UNL     1      -2.729  -0.808 -31.940  1.00  0.00    -0.508 OA
ATOM     18  H   UNL     1      -3.310  -0.982 -32.700  1.00  0.00     0.293 HD
ENDBRANCH  14  17
BRANCH  15  19
ATOM     19  O   UNL     1      -4.562  -2.289 -27.806  1.00  0.00    -0.508 OA
ATOM     20  H   UNL     1      -4.330  -1.895 -26.948  1.00  0.00     0.293 HD
ENDBRANCH  15  19
ENDBRANCH   2  11
TORSDOF 5
ENDMDL
MODEL 5
REMARK VINA RESULT:      -7.0      2.395      2.790
REMARK SMILES Oc1ccc(/C=C\c2cc(O)cc(O)c2)cc1
REMARK SMILES IDX 6 1 7 2 5 3 4 4 3 5 2 6 16 7 17 8 1 9 8 11 15 12 9 13 13 14
REMARK SMILES IDX 10 15 12 16 14 17 11 19
REMARK H PARENT 1 10 14 18 11 20
ROOT
ATOM      1  C   UNL     1      -7.804  -1.977 -30.612  1.00  0.00     0.009 C 
ATOM      2  C   UNL     1      -6.575  -1.743 -30.127  1.00  0.00     0.009 C 
ENDROOT
BRANCH   1   3
ATOM      3  C   UNL     1      -8.654  -0.982 -31.271  1.00  0.00    -0.025 A 
ATOM      4  C   UNL     1      -8.588  -0.815 -32.660  1.00  0.00     0.012 A 
ATOM      5  C   UNL     1      -9.397   0.131 -33.295  1.00  0.00     0.047 A 
ATOM      6  C   UNL     1     -10.267   0.909 -32.535  1.00  0.00     0.115 A 
ATOM      7  C   UNL     1      -9.533  -0.190 -30.522  1.00  0.00     0.012 A 
ATOM      8  C   UNL     1     -10.340   0.756 -31.156  1.00  0.00     0.047 A 
BRANCH   6   9
ATOM      9  O   UNL     1     -11.073   1.843 -33.114  1.00  0.00    -0.508 OA
ATOM     10  H   UNL     1     -11.997   1.566 -33.005  1.00  0.00     0.293 HD
ENDBRANCH   6   9
ENDBRANCH   1   3
BRANCH   2  11
ATOM     11  C   UNL     1      -5.894  -0.446 -30.154  1.00  0.00    -0.018 A 
ATOM     12  C   UNL     1      -6.019   0.439 -29.077  1.00  0.00     0.054 A 
ATOM     13  C   UNL     1      -5.121  -0.084 -31.263  1.00  0.00     0.054 A 
ATOM     14  C   UNL     1      -5.372   1.672 -29.122  1.00  0.00     0.119 A 
ATOM     15  C   UNL     1      -4.489   1.156 -31.289  1.00  0.00     0.119 A 
ATOM     16  C   UNL     1      -4.605   2.041 -30.222  1.00  0.00     0.092 A 
BRANCH  14  17
ATOM     17  O   UNL     1      -5.466   2.561 -28.090  1.00  0.00    -0.508 OA
ATOM     18  H   UNL     1      -4.912   3.333 -28.298  1.00  0.00     0.293 HD
ENDBRANCH  14  17
BRANCH  15  19
ATOM     19  O   UNL     1      -3.754   1.471 -32.395  1.00  0.00    -0.508 OA
ATOM     20  H   UNL     1      -3.696   2.439 -32.457  1.00  0.00     0.293 HD
ENDBRANCH  15  19
ENDBRANCH   2  11
TORSDOF 5
ENDMDL
MODEL 6
REMARK VINA RESULT:      -7.0      2.508      5.215
REMARK SMILES Oc1ccc(/C=C\c2cc(O)cc(O)c2)cc1
REMARK SMILES IDX 6 1 7 2 5 3 4 4 3 5 2 6 16 7 17 8 1 9 8 11 15 12 9 13 13 14
REMARK SMILES IDX 10 15 12 16 14 17 11 19
REMARK H PARENT 1 10 14 18 11 20
ROOT
ATOM      1  C   UNL     1      -2.553  -0.621 -29.236  1.00  0.00     0.009 C 
ATOM      2  C   UNL     1      -2.823   0.081 -30.347  1.00  0.00     0.009 C 
ENDROOT
BRANCH   1   3
ATOM      3  C   UNL     1      -3.492  -0.854 -28.136  1.00  0.00    -0.025 A 
ATOM      4  C   UNL     1      -3.647   0.110 -27.132  1.00  0.00     0.012 A 
ATOM      5  C   UNL     1      -4.543  -0.105 -26.081  1.00  0.00     0.047 A 
ATOM      6  C   UNL     1      -5.277  -1.287 -26.038  1.00  0.00     0.115 A 
ATOM      7  C   UNL     1      -4.237  -2.038 -28.076  1.00  0.00     0.012 A 
ATOM      8  C   UNL     1      -5.130  -2.254 -27.026  1.00  0.00     0.047 A 
BRANCH   6   9
ATOM      9  O   UNL     1      -6.161  -1.538 -25.032  1.00  0.00    -0.508 OA
ATOM     10  H   UNL     1      -6.551  -0.696 -24.744  1.00  0.00     0.293 HD
ENDBRANCH   6   9
ENDBRANCH   1   3
BRANCH   2  11
ATOM     11  C   UNL     1      -4.095   0.752 -30.629  1.00  0.00    -0.018 A 
ATOM     12  C   UNL     1      -5.120   0.068 -31.293  1.00  0.00     0.054 A 
ATOM     13  C   UNL     1      -4.286   2.082 -30.240  1.00  0.00     0.054 A 
ATOM     14  C   UNL     1      -6.321   0.723 -31.560  1.00  0.00     0.119 A 
ATOM     15  C   UNL     1      -5.492   2.718 -30.524  1.00  0.00     0.119 A 
ATOM     16  C   UNL     1      -6.517   2.047 -31.181  1.00  0.00     0.092 A 
BRANCH  14  17
ATOM     17  O   UNL     1      -7.347   0.090 -32.202  1.00  0.00    -0.508 OA
ATOM     18  H   UNL     1      -7.055  -0.807 -32.437  1.00  0.00     0.293 HD
ENDBRANCH  14  17
BRANCH  15  19
ATOM     19  O   UNL     1      -5.630   4.019 -30.137  1.00  0.00    -0.508 OA
ATOM     20  H   UNL     1      -5.223   4.584 -30.814  1.00  0.00     0.293 HD
ENDBRANCH  15  19
ENDBRANCH   2  11
TORSDOF 5
ENDMDL
MODEL 7
REMARK VINA RESULT:      -7.0      1.786      3.452
REMARK SMILES Oc1ccc(/C=C\c2cc(O)cc(O)c2)cc1
REMARK SMILES IDX 6 1 7 2 5 3 4 4 3 5 2 6 16 7 17 8 1 9 8 11 15 12 9 13 13 14
REMARK SMILES IDX 10 15 12 16 14 17 11 19
REMARK H PARENT 1 10 14 18 11 20
ROOT
ATOM      1  C   UNL     1      -6.573   2.676 -30.305  1.00  0.00     0.009 C 
ATOM      2  C   UNL     1      -5.300   2.929 -29.960  1.00  0.00     0.009 C 
ENDROOT
BRANCH   1   3
ATOM      3  C   UNL     1      -7.108   1.355 -30.644  1.00  0.00    -0.025 A 
ATOM      4  C   UNL     1      -7.371   0.426 -29.631  1.00  0.00     0.012 A 
ATOM      5  C   UNL     1      -7.883  -0.836 -29.947  1.00  0.00     0.047 A 
ATOM      6  C   UNL     1      -8.126  -1.162 -31.279  1.00  0.00     0.115 A 
ATOM      7  C   UNL     1      -7.356   1.010 -31.978  1.00  0.00     0.012 A 
ATOM      8  C   UNL     1      -7.865  -0.251 -32.294  1.00  0.00     0.047 A 
BRANCH   6   9
ATOM      9  O   UNL     1      -8.624  -2.381 -31.632  1.00  0.00    -0.508 OA
ATOM     10  H   UNL     1      -8.676  -2.936 -30.837  1.00  0.00     0.293 HD
ENDBRANCH   6   9
ENDBRANCH   1   3
BRANCH   2  11
ATOM     11  C   UNL     1      -4.233   1.928 -29.893  1.00  0.00    -0.018 A 
ATOM     12  C   UNL     1      -4.063   1.007 -30.934  1.00  0.00     0.054 A 
ATOM     13  C   UNL     1      -3.385   1.882 -28.781  1.00  0.00     0.054 A 
ATOM     14  C   UNL     1      -3.049   0.056 -30.851  1.00  0.00     0.119 A 
ATOM     15  C   UNL     1      -2.382   0.918 -28.717  1.00  0.00     0.119 A 
ATOM     16  C   UNL     1      -2.204   0.001 -29.747  1.00  0.00     0.092 A 
BRANCH  14  17
ATOM     17  O   UNL     1      -2.847  -0.856 -31.847  1.00  0.00    -0.508 OA
ATOM     18  H   UNL     1      -3.701  -1.037 -32.275  1.00  0.00     0.293 HD
ENDBRANCH  14  17
BRANCH  15  19
ATOM     19  O   UNL     1      -1.585   0.905 -27.609  1.00  0.00    -0.508 OA
ATOM     20  H   UNL     1      -2.155   0.931 -26.823  1.00  0.00     0.293 HD
ENDBRANCH  15  19
ENDBRANCH   2  11
TORSDOF 5
ENDMDL
MODEL 8
REMARK VINA RESULT:      -7.0      1.787      2.816
REMARK SMILES Oc1ccc(/C=C\c2cc(O)cc(O)c2)cc1
REMARK SMILES IDX 6 1 7 2 5 3 4 4 3 5 2 6 16 7 17 8 1 9 8 11 15 12 9 13 13 14
REMARK SMILES IDX 10 15 12 16 14 17 11 19
REMARK H PARENT 1 10 14 18 11 20
ROOT
ATOM      1  C   UNL     1      -6.578   2.670 -30.341  1.00  0.00     0.009 C 
ATOM      2  C   UNL     1      -5.310   2.930 -29.983  1.00  0.00     0.009 C 
ENDROOT
BRANCH   1   3
ATOM      3  C   UNL     1      -7.109   1.342 -30.658  1.00  0.00    -0.025 A 
ATOM      4  C   UNL     1      -7.380   0.433 -29.628  1.00  0.00     0.012 A 
ATOM      5  C   UNL     1      -7.889  -0.834 -29.923  1.00  0.00     0.047 A 
ATOM      6  C   UNL     1      -8.121  -1.188 -31.250  1.00  0.00     0.115 A 
ATOM      7  C   UNL     1      -7.347   0.971 -31.986  1.00  0.00     0.012 A 
ATOM      8  C   UNL     1      -7.853  -0.296 -32.282  1.00  0.00     0.047 A 
BRANCH   6   9
ATOM      9  O   UNL     1      -8.615  -2.413 -31.583  1.00  0.00    -0.508 OA
ATOM     10  H   UNL     1      -7.886  -2.963 -31.912  1.00  0.00     0.293 HD
ENDBRANCH   6   9
ENDBRANCH   1   3
BRANCH   2  11
ATOM     11  C   UNL     1      -4.245   1.930 -29.878  1.00  0.00    -0.018 A 
ATOM     12  C   UNL     1      -3.415   1.900 -28.752  1.00  0.00     0.054 A 
ATOM     13  C   UNL     1      -4.049   1.005 -30.909  1.00  0.00     0.054 A 
ATOM     14  C   UNL     1      -2.401   0.947 -28.670  1.00  0.00     0.119 A 
ATOM     15  C   UNL     1      -3.025   0.066 -30.810  1.00  0.00     0.119 A 
ATOM     16  C   UNL     1      -2.197   0.026 -29.694  1.00  0.00     0.092 A 
BRANCH  14  17
ATOM     17  O   UNL     1      -1.573   0.881 -27.587  1.00  0.00    -0.508 OA
ATOM     18  H   UNL     1      -0.867   0.242 -27.778  1.00  0.00     0.293 HD
ENDBRANCH  14  17
BRANCH  15  19
ATOM     19  O   UNL     1      -2.865  -0.809 -31.844  1.00  0.00    -0.508 OA
ATOM     20  H   UNL     1      -3.320  -1.637 -31.617  1.00  0.00     0.293 HD
ENDBRANCH  15  19
ENDBRANCH   2  11
TORSDOF 5
ENDMDL
MODEL 9
REMARK VINA RESULT:      -7.0      2.330      3.249
REMARK SMILES Oc1ccc(/C=C\c2cc(O)cc(O)c2)cc1
REMARK SMILES IDX 6 1 7 2 5 3 4 4 3 5 2 6 16 7 17 8 1 9 8 11 15 12 9 13 13 14
REMARK SMILES IDX 10 15 12 16 14 17 11 19
REMARK H PARENT 1 10 14 18 11 20
ROOT
ATOM      1  C   UNL     1      -7.871  -2.052 -30.489  1.00  0.00     0.009 C 
ATOM      2  C   UNL     1      -6.639  -1.832 -30.002  1.00  0.00     0.009 C 
ENDROOT
BRANCH   1   3
ATOM      3  C   UNL     1      -8.694  -1.059 -31.184  1.00  0.00    -0.025 A 
ATOM      4  C   UNL     1      -8.657  -0.975 -32.581  1.00  0.00     0.012 A 
ATOM      5  C   UNL     1      -9.440  -0.032 -33.251  1.00  0.00     0.047 A 
ATOM      6  C   UNL     1     -10.255   0.827 -32.518  1.00  0.00     0.115 A 
ATOM      7  C   UNL     1      -9.517  -0.187 -30.462  1.00  0.00     0.012 A 
ATOM      8  C   UNL     1     -10.298   0.757 -31.131  1.00  0.00     0.047 A 
BRANCH   6   9
ATOM      9  O   UNL     1     -11.034   1.762 -33.131  1.00  0.00    -0.508 OA
ATOM     10  H   UNL     1     -10.981   2.589 -32.625  1.00  0.00     0.293 HD
ENDBRANCH   6   9
ENDBRANCH   1   3
BRANCH   2  11
ATOM     11  C   UNL     1      -5.928  -0.552 -30.066  1.00  0.00    -0.018 A 
ATOM     12  C   UNL     1      -5.116  -0.251 -31.166  1.00  0.00     0.054 A 
ATOM     13  C   UNL     1      -6.052   0.370 -29.021  1.00  0.00     0.054 A 
ATOM     14  C   UNL     1      -4.440   0.967 -31.208  1.00  0.00     0.119 A 
ATOM     15  C   UNL     1      -5.361   1.578 -29.081  1.00  0.00     0.119 A 
ATOM     16  C   UNL     1      -4.555   1.887 -30.171  1.00  0.00     0.092 A 
BRANCH  14  17
ATOM     17  O   UNL     1      -3.643   1.300 -32.264  1.00  0.00    -0.508 OA
ATOM     18  H   UNL     1      -3.908   2.179 -32.584  1.00  0.00     0.293 HD
ENDBRANCH  14  17
BRANCH  15  19
ATOM     19  O   UNL     1      -5.503   2.442 -28.035  1.00  0.00    -0.508 OA
ATOM     20  H   UNL     1      -6.304   2.197 -27.544  1.00  0.00     0.293 HD
ENDBRANCH  15  19
ENDBRANCH   2  11
TORSDOF 5
ENDMDL
MODEL 10
REMARK VINA RESULT:      -7.0      2.355      4.980
REMARK SMILES Oc1ccc(/C=C\c2cc(O)cc(O)c2)cc1
REMARK SMILES IDX 6 1 7 2 5 3 4 4 3 5 2 6 16 7 17 8 1 9 8 11 15 12 9 13 13 14
REMARK SMILES IDX 10 15 12 16 14 17 11 19
REMARK H PARENT 1 10 14 18 11 20
ROOT
ATOM      1  C   UNL     1      -3.451  -1.863 -29.183  1.00  0.00     0.009 C 
ATOM      2  C   UNL     1      -3.773  -1.415 -30.407  1.00  0.00     0.009 C 
ENDROOT
BRANCH   1   3
ATOM      3  C   UNL     1      -3.929  -1.289 -27.922  1.00  0.00    -0.025 A 
ATOM      4  C   UNL     1      -4.919  -1.949 -27.184  1.00  0.00     0.012 A 
ATOM      5  C   UNL     1      -5.378  -1.408 -25.980  1.00  0.00     0.047 A 
ATOM      6  C   UNL     1      -4.845  -0.205 -25.522  1.00  0.00     0.115 A 
ATOM      7  C   UNL     1      -3.406  -0.080 -27.449  1.00  0.00     0.012 A 
ATOM      8  C   UNL     1      -3.865   0.462 -26.247  1.00  0.00     0.047 A 
BRANCH   6   9
ATOM      9  O   UNL     1      -5.264   0.358 -24.354  1.00  0.00    -0.508 OA
ATOM     10  H   UNL     1      -6.220   0.213 -24.265  1.00  0.00     0.293 HD
ENDBRANCH   6   9
ENDBRANCH   1   3
BRANCH   2  11
ATOM     11  C   UNL     1      -4.633  -0.261 -30.680  1.00  0.00    -0.018 A 
ATOM     12  C   UNL     1      -5.999  -0.443 -30.926  1.00  0.00     0.054 A 
ATOM     13  C   UNL     1      -4.090   1.028 -30.703  1.00  0.00     0.054 A 
ATOM     14  C   UNL     1      -6.803   0.664 -31.192  1.00  0.00     0.119 A 
ATOM     15  C   UNL     1      -4.911   2.119 -30.978  1.00  0.00     0.119 A 
ATOM     16  C   UNL     1      -6.269   1.948 -31.221  1.00  0.00     0.092 A 
BRANCH  14  17
ATOM     17  O   UNL     1      -8.140   0.529 -31.433  1.00  0.00    -0.508 OA
ATOM     18  H   UNL     1      -8.452   1.328 -31.891  1.00  0.00     0.293 HD
ENDBRANCH  14  17
BRANCH  15  19
ATOM     19  O   UNL     1      -4.336   3.356 -31.001  1.00  0.00    -0.508 OA
ATOM     20  H   UNL     1      -5.036   4.015 -31.136  1.00  0.00     0.293 HD
ENDBRANCH  15  19
ENDBRANCH   2  11
TORSDOF 5
ENDMDL
