MODEL 1
REMARK VINA RESULT:      -7.1      0.000      0.000
REMARK SMILES Oc1ccc(Cc2ccccc2)c(O)c1
REMARK SMILES IDX 5 1 13 2 15 3 2 4 3 5 4 6 6 7 7 8 10 9 9 10 11 11 8 12 12 13
REMARK SMILES IDX 14 14 1 16
REMARK H PARENT 14 15 1 17
ROOT
ATOM      1  C   UNL     1      10.132   0.507 -15.559  1.00  0.00    -0.001 A 
ATOM      2  C   UNL     1      10.005   1.903 -15.506  1.00  0.00     0.122 A 
ATOM      3  C   UNL     1      11.118   2.736 -15.621  1.00  0.00     0.092 A 
ATOM      4  C   UNL     1      12.373   2.175 -15.814  1.00  0.00     0.119 A 
ATOM      5  C   UNL     1      12.532   0.799 -15.885  1.00  0.00     0.047 A 
ATOM      6  C   UNL     1      11.417  -0.033 -15.754  1.00  0.00     0.012 A 
ENDROOT
BRANCH   1   7
ATOM      7  C   UNL     1       8.964  -0.437 -15.374  1.00  0.00     0.075 C 
BRANCH   7   8
ATOM      8  C   UNL     1       8.147  -0.718 -16.617  1.00  0.00    -0.043 A 
ATOM      9  C   UNL     1       6.616  -1.299 -18.899  1.00  0.00     0.000 A 
ATOM     10  C   UNL     1       7.886  -0.742 -19.034  1.00  0.00     0.000 A 
ATOM     11  C   UNL     1       6.111  -1.578 -17.631  1.00  0.00     0.000 A 
ATOM     12  C   UNL     1       8.650  -0.461 -17.900  1.00  0.00     0.004 A 
ATOM     13  C   UNL     1       6.873  -1.295 -16.497  1.00  0.00     0.004 A 
ENDBRANCH   7   8
ENDBRANCH   1   7
BRANCH   2  14
ATOM     14  O   UNL     1       8.804   2.532 -15.334  1.00  0.00    -0.508 OA
ATOM     15  H   UNL     1       8.622   3.074 -16.119  1.00  0.00     0.293 HD
ENDBRANCH   2  14
BRANCH   4  16
ATOM     16  O   UNL     1      13.489   2.951 -15.940  1.00  0.00    -0.508 OA
ATOM     17  H   UNL     1      13.948   2.695 -16.757  1.00  0.00     0.293 HD
ENDBRANCH   4  16
TORSDOF 4
ENDMDL
MODEL 2
REMARK VINA RESULT:      -7.1      1.415      2.198
REMARK SMILES Oc1ccc(Cc2ccccc2)c(O)c1
REMARK SMILES IDX 5 1 13 2 15 3 2 4 3 5 4 6 6 7 7 8 10 9 9 10 11 11 8 12 12 13
REMARK SMILES IDX 14 14 1 16
REMARK H PARENT 14 15 1 17
ROOT
ATOM      1  C   UNL     1       8.101  -0.142 -16.197  1.00  0.00    -0.001 A 
ATOM      2  C   UNL     1       8.465   1.212 -16.215  1.00  0.00     0.122 A 
ATOM      3  C   UNL     1       9.763   1.617 -15.901  1.00  0.00     0.092 A 
ATOM      4  C   UNL     1      10.719   0.660 -15.586  1.00  0.00     0.119 A 
ATOM      5  C   UNL     1      10.395  -0.689 -15.573  1.00  0.00     0.047 A 
ATOM      6  C   UNL     1       9.091  -1.089 -15.873  1.00  0.00     0.012 A 
ENDROOT
BRANCH   1   7
ATOM      7  C   UNL     1       6.691  -0.623 -16.467  1.00  0.00     0.075 C 
BRANCH   7   8
ATOM      8  C   UNL     1       6.516  -1.474 -17.706  1.00  0.00    -0.043 A 
ATOM      9  C   UNL     1       6.220  -3.103 -19.976  1.00  0.00     0.000 A 
ATOM     10  C   UNL     1       6.710  -1.805 -20.107  1.00  0.00     0.000 A 
ATOM     11  C   UNL     1       5.889  -3.596 -18.715  1.00  0.00     0.000 A 
ATOM     12  C   UNL     1       6.864  -0.998 -18.979  1.00  0.00     0.004 A 
ATOM     13  C   UNL     1       6.041  -2.788 -17.587  1.00  0.00     0.004 A 
ENDBRANCH   7   8
ENDBRANCH   1   7
BRANCH   2  14
ATOM     14  O   UNL     1       7.588   2.212 -16.528  1.00  0.00    -0.508 OA
ATOM     15  H   UNL     1       7.125   2.484 -15.718  1.00  0.00     0.293 HD
ENDBRANCH   2  14
BRANCH   4  16
ATOM     16  O   UNL     1      12.002   1.009 -15.281  1.00  0.00    -0.508 OA
ATOM     17  H   UNL     1      12.016   1.354 -14.373  1.00  0.00     0.293 HD
ENDBRANCH   4  16
TORSDOF 4
ENDMDL
MODEL 3
REMARK VINA RESULT:      -7.0     17.448     20.505
REMARK SMILES Oc1ccc(Cc2ccccc2)c(O)c1
REMARK SMILES IDX 5 1 13 2 15 3 2 4 3 5 4 6 6 7 7 8 10 9 9 10 11 11 8 12 12 13
REMARK SMILES IDX 14 14 1 16
REMARK H PARENT 14 15 1 17
ROOT
ATOM      1  C   UNL     1      -4.251   1.123 -30.768  1.00  0.00    -0.001 A 
ATOM      2  C   UNL     1      -3.216   0.176 -30.761  1.00  0.00     0.122 A 
ATOM      3  C   UNL     1      -2.308   0.104 -29.705  1.00  0.00     0.092 A 
ATOM      4  C   UNL     1      -2.442   0.972 -28.629  1.00  0.00     0.119 A 
ATOM      5  C   UNL     1      -3.462   1.912 -28.599  1.00  0.00     0.047 A 
ATOM      6  C   UNL     1      -4.361   1.991 -29.664  1.00  0.00     0.012 A 
ENDROOT
BRANCH   1   7
ATOM      7  C   UNL     1      -5.220   1.281 -31.920  1.00  0.00     0.075 C 
BRANCH   7   8
ATOM      8  C   UNL     1      -6.434   0.377 -31.882  1.00  0.00    -0.043 A 
ATOM      9  C   UNL     1      -8.725  -1.248 -31.815  1.00  0.00     0.000 A 
ATOM     10  C   UNL     1      -7.677  -1.481 -30.926  1.00  0.00     0.000 A 
ATOM     11  C   UNL     1      -8.639  -0.199 -32.728  1.00  0.00     0.000 A 
ATOM     12  C   UNL     1      -6.541  -0.669 -30.954  1.00  0.00     0.004 A 
ATOM     13  C   UNL     1      -7.504   0.612 -32.759  1.00  0.00     0.004 A 
ENDBRANCH   7   8
ENDBRANCH   1   7
BRANCH   2  14
ATOM     14  O   UNL     1      -3.027  -0.722 -31.773  1.00  0.00    -0.508 OA
ATOM     15  H   UNL     1      -2.076  -0.774 -31.968  1.00  0.00     0.293 HD
ENDBRANCH   2  14
BRANCH   4  16
ATOM     16  O   UNL     1      -1.581   0.933 -27.571  1.00  0.00    -0.508 OA
ATOM     17  H   UNL     1      -1.880   1.580 -26.911  1.00  0.00     0.293 HD
ENDBRANCH   4  16
TORSDOF 4
ENDMDL
MODEL 4
REMARK VINA RESULT:      -6.9     17.439     20.485
REMARK SMILES Oc1ccc(Cc2ccccc2)c(O)c1
REMARK SMILES IDX 5 1 13 2 15 3 2 4 3 5 4 6 6 7 7 8 10 9 9 10 11 11 8 12 12 13
REMARK SMILES IDX 14 14 1 16
REMARK H PARENT 14 15 1 17
ROOT
ATOM      1  C   UNL     1      -4.260   1.128 -30.766  1.00  0.00    -0.001 A 
ATOM      2  C   UNL     1      -3.225   0.180 -30.759  1.00  0.00     0.122 A 
ATOM      3  C   UNL     1      -2.315   0.108 -29.705  1.00  0.00     0.092 A 
ATOM      4  C   UNL     1      -2.446   0.978 -28.630  1.00  0.00     0.119 A 
ATOM      5  C   UNL     1      -3.466   1.918 -28.599  1.00  0.00     0.047 A 
ATOM      6  C   UNL     1      -4.367   1.996 -29.663  1.00  0.00     0.012 A 
ENDROOT
BRANCH   1   7
ATOM      7  C   UNL     1      -5.230   1.284 -31.916  1.00  0.00     0.075 C 
BRANCH   7   8
ATOM      8  C   UNL     1      -6.457   0.399 -31.862  1.00  0.00    -0.043 A 
ATOM      9  C   UNL     1      -8.694  -1.296 -31.759  1.00  0.00     0.000 A 
ATOM     10  C   UNL     1      -8.646  -0.261 -32.690  1.00  0.00     0.000 A 
ATOM     11  C   UNL     1      -7.626  -1.497 -30.888  1.00  0.00     0.000 A 
ATOM     12  C   UNL     1      -7.530   0.577 -32.747  1.00  0.00     0.004 A 
ATOM     13  C   UNL     1      -6.512  -0.658 -30.942  1.00  0.00     0.004 A 
ENDBRANCH   7   8
ENDBRANCH   1   7
BRANCH   2  14
ATOM     14  O   UNL     1      -3.038  -0.720 -31.771  1.00  0.00    -0.508 OA
ATOM     15  H   UNL     1      -2.877  -1.596 -31.382  1.00  0.00     0.293 HD
ENDBRANCH   2  14
BRANCH   4  16
ATOM     16  O   UNL     1      -1.583   0.939 -27.574  1.00  0.00    -0.508 OA
ATOM     17  H   UNL     1      -2.106   0.908 -26.755  1.00  0.00     0.293 HD
ENDBRANCH   4  16
TORSDOF 4
ENDMDL
MODEL 5
REMARK VINA RESULT:      -6.9     19.347     22.299
REMARK SMILES Oc1ccc(Cc2ccccc2)c(O)c1
REMARK SMILES IDX 5 1 13 2 15 3 2 4 3 5 4 6 6 7 7 8 10 9 9 10 11 11 8 12 12 13
REMARK SMILES IDX 14 14 1 16
REMARK H PARENT 14 15 1 17
ROOT
ATOM      1  C   UNL     1      -5.631   0.510 -31.499  1.00  0.00    -0.001 A 
ATOM      2  C   UNL     1      -4.233   0.496 -31.608  1.00  0.00     0.122 A 
ATOM      3  C   UNL     1      -3.456  -0.374 -30.842  1.00  0.00     0.092 A 
ATOM      4  C   UNL     1      -4.079  -1.258 -29.971  1.00  0.00     0.119 A 
ATOM      5  C   UNL     1      -5.461  -1.279 -29.850  1.00  0.00     0.047 A 
ATOM      6  C   UNL     1      -6.235  -0.396 -30.607  1.00  0.00     0.012 A 
ENDROOT
BRANCH   1   7
ATOM      7  C   UNL     1      -6.510   1.479 -32.261  1.00  0.00     0.075 C 
BRANCH   7   8
ATOM      8  C   UNL     1      -7.945   1.041 -32.462  1.00  0.00    -0.043 A 
ATOM      9  C   UNL     1     -10.602   0.242 -32.900  1.00  0.00     0.000 A 
ATOM     10  C   UNL     1     -10.295   1.093 -31.841  1.00  0.00     0.000 A 
ATOM     11  C   UNL     1      -9.591  -0.203 -33.749  1.00  0.00     0.000 A 
ATOM     12  C   UNL     1      -8.975   1.497 -31.628  1.00  0.00     0.004 A 
ATOM     13  C   UNL     1      -8.271   0.198 -33.535  1.00  0.00     0.004 A 
ENDBRANCH   7   8
ENDBRANCH   1   7
BRANCH   2  14
ATOM     14  O   UNL     1      -3.546   1.323 -32.452  1.00  0.00    -0.508 OA
ATOM     15  H   UNL     1      -2.851   1.776 -31.946  1.00  0.00     0.293 HD
ENDBRANCH   2  14
BRANCH   4  16
ATOM     16  O   UNL     1      -3.360  -2.132 -29.208  1.00  0.00    -0.508 OA
ATOM     17  H   UNL     1      -2.416  -1.986 -29.386  1.00  0.00     0.293 HD
ENDBRANCH   4  16
TORSDOF 4
ENDMDL
MODEL 6
REMARK VINA RESULT:      -6.8     17.213     20.289
REMARK SMILES Oc1ccc(Cc2ccccc2)c(O)c1
REMARK SMILES IDX 5 1 13 2 15 3 2 4 3 5 4 6 6 7 7 8 10 9 9 10 11 11 8 12 12 13
REMARK SMILES IDX 14 14 1 16
REMARK H PARENT 14 15 1 17
ROOT
ATOM      1  C   UNL     1      -4.624  -0.785 -29.607  1.00  0.00    -0.001 A 
ATOM      2  C   UNL     1      -3.390  -0.572 -30.238  1.00  0.00     0.122 A 
ATOM      3  C   UNL     1      -2.347   0.087 -29.586  1.00  0.00     0.092 A 
ATOM      4  C   UNL     1      -2.526   0.521 -28.279  1.00  0.00     0.119 A 
ATOM      5  C   UNL     1      -3.730   0.314 -27.622  1.00  0.00     0.047 A 
ATOM      6  C   UNL     1      -4.777  -0.333 -28.283  1.00  0.00     0.012 A 
ENDROOT
BRANCH   1   7
ATOM      7  C   UNL     1      -5.804  -1.436 -30.297  1.00  0.00     0.075 C 
BRANCH   7   8
ATOM      8  C   UNL     1      -6.660  -0.513 -31.138  1.00  0.00    -0.043 A 
ATOM      9  C   UNL     1      -8.261   1.149 -32.740  1.00  0.00     0.000 A 
ATOM     10  C   UNL     1      -7.022   1.598 -32.287  1.00  0.00     0.000 A 
ATOM     11  C   UNL     1      -8.699  -0.131 -32.407  1.00  0.00     0.000 A 
ATOM     12  C   UNL     1      -6.223   0.769 -31.497  1.00  0.00     0.004 A 
ATOM     13  C   UNL     1      -7.902  -0.959 -31.615  1.00  0.00     0.004 A 
ENDBRANCH   7   8
ENDBRANCH   1   7
BRANCH   2  14
ATOM     14  O   UNL     1      -3.130  -0.981 -31.516  1.00  0.00    -0.508 OA
ATOM     15  H   UNL     1      -3.508  -1.868 -31.641  1.00  0.00     0.293 HD
ENDBRANCH   2  14
BRANCH   4  16
ATOM     16  O   UNL     1      -1.532   1.162 -27.600  1.00  0.00    -0.508 OA
ATOM     17  H   UNL     1      -1.827   1.297 -26.684  1.00  0.00     0.293 HD
ENDBRANCH   4  16
TORSDOF 4
ENDMDL
MODEL 7
REMARK VINA RESULT:      -6.7     19.140     22.040
REMARK SMILES Oc1ccc(Cc2ccccc2)c(O)c1
REMARK SMILES IDX 5 1 13 2 15 3 2 4 3 5 4 6 6 7 7 8 10 9 9 10 11 11 8 12 12 13
REMARK SMILES IDX 14 14 1 16
REMARK H PARENT 14 15 1 17
ROOT
ATOM      1  C   UNL     1      -5.633   0.922 -30.818  1.00  0.00    -0.001 A 
ATOM      2  C   UNL     1      -4.352   0.615 -31.299  1.00  0.00     0.122 A 
ATOM      3  C   UNL     1      -3.578  -0.387 -30.714  1.00  0.00     0.092 A 
ATOM      4  C   UNL     1      -4.094  -1.111 -29.647  1.00  0.00     0.119 A 
ATOM      5  C   UNL     1      -5.363  -0.842 -29.155  1.00  0.00     0.047 A 
ATOM      6  C   UNL     1      -6.129   0.172 -29.734  1.00  0.00     0.012 A 
ENDROOT
BRANCH   1   7
ATOM      7  C   UNL     1      -6.482   2.042 -31.379  1.00  0.00     0.075 C 
BRANCH   7   8
ATOM      8  C   UNL     1      -7.680   1.609 -32.196  1.00  0.00    -0.043 A 
ATOM      9  C   UNL     1      -9.932   0.780 -33.657  1.00  0.00     0.000 A 
ATOM     10  C   UNL     1      -8.652   0.512 -34.137  1.00  0.00     0.000 A 
ATOM     11  C   UNL     1     -10.094   1.448 -32.445  1.00  0.00     0.000 A 
ATOM     12  C   UNL     1      -7.532   0.917 -33.407  1.00  0.00     0.004 A 
ATOM     13  C   UNL     1      -8.975   1.856 -31.717  1.00  0.00     0.004 A 
ENDBRANCH   7   8
ENDBRANCH   1   7
BRANCH   2  14
ATOM     14  O   UNL     1      -3.780   1.271 -32.354  1.00  0.00    -0.508 OA
ATOM     15  H   UNL     1      -2.814   1.195 -32.280  1.00  0.00     0.293 HD
ENDBRANCH   2  14
BRANCH   4  16
ATOM     16  O   UNL     1      -3.377  -2.105 -29.047  1.00  0.00    -0.508 OA
ATOM     17  H   UNL     1      -3.677  -2.956 -29.406  1.00  0.00     0.293 HD
ENDBRANCH   4  16
TORSDOF 4
ENDMDL
MODEL 8
REMARK VINA RESULT:      -6.7      2.644      5.594
REMARK SMILES Oc1ccc(Cc2ccccc2)c(O)c1
REMARK SMILES IDX 5 1 13 2 15 3 2 4 3 5 4 6 6 7 7 8 10 9 9 10 11 11 8 12 12 13
REMARK SMILES IDX 14 14 1 16
REMARK H PARENT 14 15 1 17
ROOT
ATOM      1  C   UNL     1       8.033  -0.838 -16.714  1.00  0.00    -0.001 A 
ATOM      2  C   UNL     1       6.736  -1.363 -16.815  1.00  0.00     0.122 A 
ATOM      3  C   UNL     1       6.150  -1.611 -18.056  1.00  0.00     0.092 A 
ATOM      4  C   UNL     1       6.872  -1.354 -19.215  1.00  0.00     0.119 A 
ATOM      5  C   UNL     1       8.162  -0.848 -19.149  1.00  0.00     0.047 A 
ATOM      6  C   UNL     1       8.740  -0.588 -17.905  1.00  0.00     0.012 A 
ENDROOT
BRANCH   1   7
ATOM      7  C   UNL     1       8.684  -0.493 -15.392  1.00  0.00     0.075 C 
BRANCH   7   8
ATOM      8  C   UNL     1       9.924   0.371 -15.479  1.00  0.00    -0.043 A 
ATOM      9  C   UNL     1      12.255   1.935 -15.598  1.00  0.00     0.000 A 
ATOM     10  C   UNL     1      11.010   2.547 -15.462  1.00  0.00     0.000 A 
ATOM     11  C   UNL     1      12.342   0.547 -15.663  1.00  0.00     0.000 A 
ATOM     12  C   UNL     1       9.852   1.769 -15.395  1.00  0.00     0.004 A 
ATOM     13  C   UNL     1      11.186  -0.231 -15.598  1.00  0.00     0.004 A 
ENDBRANCH   7   8
ENDBRANCH   1   7
BRANCH   2  14
ATOM     14  O   UNL     1       5.968  -1.655 -15.724  1.00  0.00    -0.508 OA
ATOM     15  H   UNL     1       5.994  -0.899 -15.113  1.00  0.00     0.293 HD
ENDBRANCH   2  14
BRANCH   4  16
ATOM     16  O   UNL     1       6.342  -1.588 -20.451  1.00  0.00    -0.508 OA
ATOM     17  H   UNL     1       5.654  -0.924 -20.618  1.00  0.00     0.293 HD
ENDBRANCH   4  16
TORSDOF 4
ENDMDL
MODEL 9
REMARK VINA RESULT:      -6.6     20.152     23.127
REMARK SMILES Oc1ccc(Cc2ccccc2)c(O)c1
REMARK SMILES IDX 5 1 13 2 15 3 2 4 3 5 4 6 6 7 7 8 10 9 9 10 11 11 8 12 12 13
REMARK SMILES IDX 14 14 1 16
REMARK H PARENT 14 15 1 17
ROOT
ATOM      1  C   UNL     1      -7.710   1.251 -31.802  1.00  0.00    -0.001 A 
ATOM      2  C   UNL     1      -7.924   1.046 -33.173  1.00  0.00     0.122 A 
ATOM      3  C   UNL     1      -9.152   0.592 -33.655  1.00  0.00     0.092 A 
ATOM      4  C   UNL     1     -10.191   0.359 -32.763  1.00  0.00     0.119 A 
ATOM      5  C   UNL     1     -10.016   0.565 -31.402  1.00  0.00     0.047 A 
ATOM      6  C   UNL     1      -8.781   1.005 -30.922  1.00  0.00     0.012 A 
ENDROOT
BRANCH   1   7
ATOM      7  C   UNL     1      -6.377   1.679 -31.228  1.00  0.00     0.075 C 
BRANCH   7   8
ATOM      8  C   UNL     1      -5.403   0.559 -30.930  1.00  0.00    -0.043 A 
ATOM      9  C   UNL     1      -3.613  -1.516 -30.313  1.00  0.00     0.000 A 
ATOM     10  C   UNL     1      -3.205  -0.462 -31.129  1.00  0.00     0.000 A 
ATOM     11  C   UNL     1      -4.905  -1.532 -29.794  1.00  0.00     0.000 A 
ATOM     12  C   UNL     1      -4.093   0.573 -31.430  1.00  0.00     0.004 A 
ATOM     13  C   UNL     1      -5.794  -0.499 -30.096  1.00  0.00     0.004 A 
ENDBRANCH   7   8
ENDBRANCH   1   7
BRANCH   2  14
ATOM     14  O   UNL     1      -6.959   1.267 -34.115  1.00  0.00    -0.508 OA
ATOM     15  H   UNL     1      -6.189   0.711 -33.907  1.00  0.00     0.293 HD
ENDBRANCH   2  14
BRANCH   4  16
ATOM     16  O   UNL     1     -11.412  -0.077 -33.189  1.00  0.00    -0.508 OA
ATOM     17  H   UNL     1     -11.826   0.634 -33.704  1.00  0.00     0.293 HD
ENDBRANCH   4  16
TORSDOF 4
ENDMDL
MODEL 10
REMARK VINA RESULT:      -6.6     19.262     22.712
REMARK SMILES Oc1ccc(Cc2ccccc2)c(O)c1
REMARK SMILES IDX 5 1 13 2 15 3 2 4 3 5 4 6 6 7 7 8 10 9 9 10 11 11 8 12 12 13
REMARK SMILES IDX 14 14 1 16
REMARK H PARENT 14 15 1 17
ROOT
ATOM      1  C   UNL     1      -7.003   1.302 -32.289  1.00  0.00    -0.001 A 
ATOM      2  C   UNL     1      -7.858   1.876 -31.336  1.00  0.00     0.122 A 
ATOM      3  C   UNL     1      -9.232   1.967 -31.557  1.00  0.00     0.092 A 
ATOM      4  C   UNL     1      -9.769   1.461 -32.733  1.00  0.00     0.119 A 
ATOM      5  C   UNL     1      -8.954   0.875 -33.691  1.00  0.00     0.047 A 
ATOM      6  C   UNL     1      -7.576   0.798 -33.472  1.00  0.00     0.012 A 
ENDROOT
BRANCH   1   7
ATOM      7  C   UNL     1      -5.501   1.239 -32.121  1.00  0.00     0.075 C 
BRANCH   7   8
ATOM      8  C   UNL     1      -4.995   0.205 -31.138  1.00  0.00    -0.043 A 
ATOM      9  C   UNL     1      -4.002  -1.722 -29.351  1.00  0.00     0.000 A 
ATOM     10  C   UNL     1      -5.332  -1.772 -29.764  1.00  0.00     0.000 A 
ATOM     11  C   UNL     1      -3.162  -0.722 -29.836  1.00  0.00     0.000 A 
ATOM     12  C   UNL     1      -5.824  -0.819 -30.658  1.00  0.00     0.004 A 
ATOM     13  C   UNL     1      -3.653   0.233 -30.728  1.00  0.00     0.004 A 
ENDBRANCH   7   8
ENDBRANCH   1   7
BRANCH   2  14
ATOM     14  O   UNL     1      -7.410   2.382 -30.148  1.00  0.00    -0.508 OA
ATOM     15  H   UNL     1      -8.082   2.217 -29.466  1.00  0.00     0.293 HD
ENDBRANCH   2  14
BRANCH   4  16
ATOM     16  O   UNL     1     -11.108   1.521 -32.989  1.00  0.00    -0.508 OA
ATOM     17  H   UNL     1     -11.542   1.961 -32.239  1.00  0.00     0.293 HD
ENDBRANCH   4  16
TORSDOF 4
ENDMDL
