MODEL 1
REMARK VINA RESULT:      -5.1      0.000      0.000
REMARK SMILES CNc1ccccc1C(=O)OC
REMARK SMILES IDX 3 1 4 2 5 3 6 4 7 5 8 6 2 7 1 8 9 10 10 11 11 12 12 13
REMARK H PARENT 2 9
ROOT
ATOM      1  C   UNL     1      -4.211   0.274 -27.576  1.00  0.00     0.048 A 
ATOM      2  C   UNL     1      -3.038   0.984 -27.260  1.00  0.00     0.026 A 
ATOM      3  C   UNL     1      -1.901   0.939 -28.075  1.00  0.00     0.002 A 
ATOM      4  C   UNL     1      -1.895   0.152 -29.219  1.00  0.00     0.001 A 
ATOM      5  C   UNL     1      -3.024  -0.594 -29.542  1.00  0.00     0.018 A 
ATOM      6  C   UNL     1      -4.177  -0.544 -28.734  1.00  0.00     0.083 A 
ENDROOT
BRANCH   1   7
ATOM      7  N   UNL     1      -5.305   0.251 -26.691  1.00  0.00    -0.387 N 
ATOM      8  C   UNL     1      -5.160  -0.358 -25.380  1.00  0.00     0.139 C 
ATOM      9  H   UNL     1      -5.739   1.176 -26.639  1.00  0.00     0.160 HD
ENDBRANCH   1   7
BRANCH   6  10
ATOM     10  C   UNL     1      -5.310  -1.400 -29.189  1.00  0.00     0.339 C 
ATOM     11  O   UNL     1      -5.951  -2.122 -28.440  1.00  0.00    -0.246 OA
BRANCH  10  12
ATOM     12  O   UNL     1      -5.471  -1.330 -30.538  1.00  0.00    -0.465 OA
ATOM     13  C   UNL     1      -6.742  -0.814 -30.941  1.00  0.00     0.282 C 
ENDBRANCH  10  12
ENDBRANCH   6  10
TORSDOF 3
ENDMDL
MODEL 2
REMARK VINA RESULT:      -5.1      2.222      2.829
REMARK SMILES CNc1ccccc1C(=O)OC
REMARK SMILES IDX 3 1 4 2 5 3 6 4 7 5 8 6 2 7 1 8 9 10 10 11 11 12 12 13
REMARK H PARENT 2 9
ROOT
ATOM      1  C   UNL     1      -4.120   1.711 -29.742  1.00  0.00     0.048 A 
ATOM      2  C   UNL     1      -3.674   2.553 -28.705  1.00  0.00     0.026 A 
ATOM      3  C   UNL     1      -2.632   2.184 -27.847  1.00  0.00     0.002 A 
ATOM      4  C   UNL     1      -2.025   0.943 -27.982  1.00  0.00     0.001 A 
ATOM      5  C   UNL     1      -2.466   0.069 -28.971  1.00  0.00     0.018 A 
ATOM      6  C   UNL     1      -3.506   0.437 -29.848  1.00  0.00     0.083 A 
ENDROOT
BRANCH   1   7
ATOM      7  N   UNL     1      -5.236   2.056 -30.526  1.00  0.00    -0.387 N 
ATOM      8  C   UNL     1      -6.505   2.355 -29.884  1.00  0.00     0.139 C 
ATOM      9  H   UNL     1      -4.979   2.765 -31.218  1.00  0.00     0.160 HD
ENDBRANCH   1   7
BRANCH   6  10
ATOM     10  C   UNL     1      -3.886  -0.597 -30.852  1.00  0.00     0.339 C 
ATOM     11  O   UNL     1      -3.098  -1.082 -31.650  1.00  0.00    -0.246 OA
BRANCH  10  12
ATOM     12  O   UNL     1      -5.222  -0.855 -30.815  1.00  0.00    -0.465 OA
ATOM     13  C   UNL     1      -5.604  -1.759 -29.776  1.00  0.00     0.282 C 
ENDBRANCH  10  12
ENDBRANCH   6  10
TORSDOF 3
ENDMDL
MODEL 3
REMARK VINA RESULT:      -5.0      3.461      5.827
REMARK SMILES CNc1ccccc1C(=O)OC
REMARK SMILES IDX 3 1 4 2 5 3 6 4 7 5 8 6 2 7 1 8 9 10 10 11 11 12 12 13
REMARK H PARENT 2 9
ROOT
ATOM      1  C   UNL     1      -7.872  -0.970 -31.566  1.00  0.00     0.048 A 
ATOM      2  C   UNL     1      -9.051  -1.213 -32.295  1.00  0.00     0.026 A 
ATOM      3  C   UNL     1      -9.399  -0.454 -33.418  1.00  0.00     0.002 A 
ATOM      4  C   UNL     1      -8.589   0.596 -33.827  1.00  0.00     0.001 A 
ATOM      5  C   UNL     1      -7.434   0.890 -33.107  1.00  0.00     0.018 A 
ATOM      6  C   UNL     1      -7.070   0.123 -31.983  1.00  0.00     0.083 A 
ENDROOT
BRANCH   1   7
ATOM      7  N   UNL     1      -7.594  -1.675 -30.381  1.00  0.00    -0.387 N 
ATOM      8  C   UNL     1      -7.938  -3.083 -30.281  1.00  0.00     0.139 C 
ATOM      9  H   UNL     1      -6.634  -1.492 -30.075  1.00  0.00     0.160 HD
ENDBRANCH   1   7
BRANCH   6  10
ATOM     10  C   UNL     1      -5.817   0.553 -31.299  1.00  0.00     0.339 C 
ATOM     11  O   UNL     1      -5.606   1.702 -30.941  1.00  0.00    -0.246 OA
BRANCH  10  12
ATOM     12  O   UNL     1      -4.927  -0.472 -31.209  1.00  0.00    -0.465 OA
ATOM     13  C   UNL     1      -3.561  -0.052 -31.228  1.00  0.00     0.282 C 
ENDBRANCH  10  12
ENDBRANCH   6  10
TORSDOF 3
ENDMDL
MODEL 4
REMARK VINA RESULT:      -5.0      2.377      3.138
REMARK SMILES CNc1ccccc1C(=O)OC
REMARK SMILES IDX 3 1 4 2 5 3 6 4 7 5 8 6 2 7 1 8 9 10 10 11 11 12 12 13
REMARK H PARENT 2 9
ROOT
ATOM      1  C   UNL     1      -3.981   0.754 -30.359  1.00  0.00     0.048 A 
ATOM      2  C   UNL     1      -2.857   0.595 -29.525  1.00  0.00     0.026 A 
ATOM      3  C   UNL     1      -2.605  -0.600 -28.842  1.00  0.00     0.002 A 
ATOM      4  C   UNL     1      -3.490  -1.664 -28.948  1.00  0.00     0.001 A 
ATOM      5  C   UNL     1      -4.631  -1.529 -29.733  1.00  0.00     0.018 A 
ATOM      6  C   UNL     1      -4.887  -0.334 -30.435  1.00  0.00     0.083 A 
ENDROOT
BRANCH   1   7
ATOM      7  N   UNL     1      -4.271   1.996 -30.953  1.00  0.00    -0.387 N 
ATOM      8  C   UNL     1      -4.749   3.095 -30.133  1.00  0.00     0.139 C 
ATOM      9  H   UNL     1      -3.506   2.281 -31.571  1.00  0.00     0.160 HD
ENDBRANCH   1   7
BRANCH   6  10
ATOM     10  C   UNL     1      -6.149  -0.320 -31.228  1.00  0.00     0.339 C 
ATOM     11  O   UNL     1      -6.416   0.542 -32.052  1.00  0.00    -0.246 OA
BRANCH  10  12
ATOM     12  O   UNL     1      -6.979  -1.331 -30.854  1.00  0.00    -0.465 OA
ATOM     13  C   UNL     1      -8.265  -1.281 -31.477  1.00  0.00     0.282 C 
ENDBRANCH  10  12
ENDBRANCH   6  10
TORSDOF 3
ENDMDL
MODEL 5
REMARK VINA RESULT:      -5.0      1.836      2.798
REMARK SMILES CNc1ccccc1C(=O)OC
REMARK SMILES IDX 3 1 4 2 5 3 6 4 7 5 8 6 2 7 1 8 9 10 10 11 11 12 12 13
REMARK H PARENT 2 9
ROOT
ATOM      1  C   UNL     1      -3.586   0.392 -28.390  1.00  0.00     0.048 A 
ATOM      2  C   UNL     1      -3.758   0.590 -27.007  1.00  0.00     0.026 A 
ATOM      3  C   UNL     1      -4.339  -0.382 -26.185  1.00  0.00     0.002 A 
ATOM      4  C   UNL     1      -4.797  -1.574 -26.732  1.00  0.00     0.001 A 
ATOM      5  C   UNL     1      -4.679  -1.788 -28.102  1.00  0.00     0.018 A 
ATOM      6  C   UNL     1      -4.083  -0.819 -28.935  1.00  0.00     0.083 A 
ENDROOT
BRANCH   1   7
ATOM      7  N   UNL     1      -3.095   1.421 -29.214  1.00  0.00    -0.387 N 
ATOM      8  C   UNL     1      -3.784   2.699 -29.261  1.00  0.00     0.139 C 
ATOM      9  H   UNL     1      -2.086   1.533 -29.080  1.00  0.00     0.160 HD
ENDBRANCH   1   7
BRANCH   6  10
ATOM     10  C   UNL     1      -4.030  -1.172 -30.382  1.00  0.00     0.339 C 
ATOM     11  O   UNL     1      -3.416  -2.135 -30.818  1.00  0.00    -0.246 OA
BRANCH  10  12
ATOM     12  O   UNL     1      -4.674  -0.244 -31.141  1.00  0.00    -0.465 OA
ATOM     13  C   UNL     1      -6.099  -0.328 -31.065  1.00  0.00     0.282 C 
ENDBRANCH  10  12
ENDBRANCH   6  10
TORSDOF 3
ENDMDL
MODEL 6
REMARK VINA RESULT:      -4.9     14.030     15.552
REMARK SMILES CNc1ccccc1C(=O)OC
REMARK SMILES IDX 3 1 4 2 5 3 6 4 7 5 8 6 2 7 1 8 9 10 10 11 11 12 12 13
REMARK H PARENT 2 9
ROOT
ATOM      1  C   UNL     1       6.599   8.383 -33.970  1.00  0.00     0.048 A 
ATOM      2  C   UNL     1       7.842   7.828 -34.332  1.00  0.00     0.026 A 
ATOM      3  C   UNL     1       9.027   8.569 -34.282  1.00  0.00     0.002 A 
ATOM      4  C   UNL     1       9.000   9.903 -33.898  1.00  0.00     0.001 A 
ATOM      5  C   UNL     1       7.784  10.496 -33.571  1.00  0.00     0.018 A 
ATOM      6  C   UNL     1       6.587   9.753 -33.605  1.00  0.00     0.083 A 
ENDROOT
BRANCH   1   7
ATOM      7  N   UNL     1       5.407   7.653 -34.125  1.00  0.00    -0.387 N 
ATOM      8  C   UNL     1       4.900   6.854 -33.023  1.00  0.00     0.139 C 
ATOM      9  H   UNL     1       4.680   8.244 -34.538  1.00  0.00     0.160 HD
ENDBRANCH   1   7
BRANCH   6  10
ATOM     10  C   UNL     1       5.357  10.513 -33.241  1.00  0.00     0.339 C 
ATOM     11  O   UNL     1       5.248  11.164 -32.213  1.00  0.00    -0.246 OA
BRANCH  10  12
ATOM     12  O   UNL     1       4.366  10.314 -34.152  1.00  0.00    -0.465 OA
ATOM     13  C   UNL     1       3.094  10.817 -33.738  1.00  0.00     0.282 C 
ENDBRANCH  10  12
ENDBRANCH   6  10
TORSDOF 3
ENDMDL
MODEL 7
REMARK VINA RESULT:      -4.9      4.369      6.212
REMARK SMILES CNc1ccccc1C(=O)OC
REMARK SMILES IDX 3 1 4 2 5 3 6 4 7 5 8 6 2 7 1 8 9 10 10 11 11 12 12 13
REMARK H PARENT 2 9
ROOT
ATOM      1  C   UNL     1      -8.606   1.129 -31.453  1.00  0.00     0.048 A 
ATOM      2  C   UNL     1      -9.447   1.996 -32.178  1.00  0.00     0.026 A 
ATOM      3  C   UNL     1     -10.217   1.550 -33.257  1.00  0.00     0.002 A 
ATOM      4  C   UNL     1     -10.145   0.225 -33.666  1.00  0.00     0.001 A 
ATOM      5  C   UNL     1      -9.295  -0.651 -32.997  1.00  0.00     0.018 A 
ATOM      6  C   UNL     1      -8.525  -0.214 -31.901  1.00  0.00     0.083 A 
ENDROOT
BRANCH   1   7
ATOM      7  N   UNL     1      -7.762   1.618 -30.439  1.00  0.00    -0.387 N 
ATOM      8  C   UNL     1      -6.600   2.417 -30.789  1.00  0.00     0.139 C 
ATOM      9  H   UNL     1      -8.316   2.051 -29.694  1.00  0.00     0.160 HD
ENDBRANCH   1   7
BRANCH   6  10
ATOM     10  C   UNL     1      -7.650  -1.252 -31.284  1.00  0.00     0.339 C 
ATOM     11  O   UNL     1      -6.453  -1.095 -31.092  1.00  0.00    -0.246 OA
BRANCH  10  12
ATOM     12  O   UNL     1      -8.338  -2.402 -31.051  1.00  0.00    -0.465 OA
ATOM     13  C   UNL     1      -8.485  -2.713 -29.663  1.00  0.00     0.282 C 
ENDBRANCH  10  12
ENDBRANCH   6  10
TORSDOF 3
ENDMDL
MODEL 8
REMARK VINA RESULT:      -4.8      2.923      5.540
REMARK SMILES CNc1ccccc1C(=O)OC
REMARK SMILES IDX 3 1 4 2 5 3 6 4 7 5 8 6 2 7 1 8 9 10 10 11 11 12 12 13
REMARK H PARENT 2 9
ROOT
ATOM      1  C   UNL     1      -6.755   0.784 -32.274  1.00  0.00     0.048 A 
ATOM      2  C   UNL     1      -7.459   1.237 -33.406  1.00  0.00     0.026 A 
ATOM      3  C   UNL     1      -8.640   0.624 -33.839  1.00  0.00     0.002 A 
ATOM      4  C   UNL     1      -9.136  -0.485 -33.168  1.00  0.00     0.001 A 
ATOM      5  C   UNL     1      -8.445  -0.984 -32.068  1.00  0.00     0.018 A 
ATOM      6  C   UNL     1      -7.262  -0.366 -31.617  1.00  0.00     0.083 A 
ENDROOT
BRANCH   1   7
ATOM      7  N   UNL     1      -5.516   1.348 -31.918  1.00  0.00    -0.387 N 
ATOM      8  C   UNL     1      -5.462   2.399 -30.917  1.00  0.00     0.139 C 
ATOM      9  H   UNL     1      -4.829   0.610 -31.738  1.00  0.00     0.160 HD
ENDBRANCH   1   7
BRANCH   6  10
ATOM     10  C   UNL     1      -6.619  -1.009 -30.436  1.00  0.00     0.339 C 
ATOM     11  O   UNL     1      -7.191  -1.183 -29.370  1.00  0.00    -0.246 OA
BRANCH  10  12
ATOM     12  O   UNL     1      -5.310  -1.291 -30.679  1.00  0.00    -0.465 OA
ATOM     13  C   UNL     1      -4.547  -1.543 -29.497  1.00  0.00     0.282 C 
ENDBRANCH  10  12
ENDBRANCH   6  10
TORSDOF 3
ENDMDL
MODEL 9
REMARK VINA RESULT:      -4.8      1.935      3.245
REMARK SMILES CNc1ccccc1C(=O)OC
REMARK SMILES IDX 3 1 4 2 5 3 6 4 7 5 8 6 2 7 1 8 9 10 10 11 11 12 12 13
REMARK H PARENT 2 9
ROOT
ATOM      1  C   UNL     1      -4.578  -1.179 -29.761  1.00  0.00     0.048 A 
ATOM      2  C   UNL     1      -3.828  -0.602 -30.803  1.00  0.00     0.026 A 
ATOM      3  C   UNL     1      -2.599   0.026 -30.572  1.00  0.00     0.002 A 
ATOM      4  C   UNL     1      -2.099   0.125 -29.281  1.00  0.00     0.001 A 
ATOM      5  C   UNL     1      -2.832  -0.401 -28.222  1.00  0.00     0.018 A 
ATOM      6  C   UNL     1      -4.064  -1.046 -28.447  1.00  0.00     0.083 A 
ENDROOT
BRANCH   1   7
ATOM      7  N   UNL     1      -5.858  -1.714 -29.999  1.00  0.00    -0.387 N 
ATOM      8  C   UNL     1      -6.807  -0.979 -30.817  1.00  0.00     0.139 C 
ATOM      9  H   UNL     1      -5.786  -2.695 -30.282  1.00  0.00     0.160 HD
ENDBRANCH   1   7
BRANCH   6  10
ATOM     10  C   UNL     1      -4.749  -1.552 -27.223  1.00  0.00     0.339 C 
ATOM     11  O   UNL     1      -5.127  -2.707 -27.093  1.00  0.00    -0.246 OA
BRANCH  10  12
ATOM     12  O   UNL     1      -4.966  -0.551 -26.328  1.00  0.00    -0.465 OA
ATOM     13  C   UNL     1      -6.167   0.186 -26.569  1.00  0.00     0.282 C 
ENDBRANCH  10  12
ENDBRANCH   6  10
TORSDOF 3
ENDMDL
MODEL 10
REMARK VINA RESULT:      -4.8      3.030      5.517
REMARK SMILES CNc1ccccc1C(=O)OC
REMARK SMILES IDX 3 1 4 2 5 3 6 4 7 5 8 6 2 7 1 8 9 10 10 11 11 12 12 13
REMARK H PARENT 2 9
ROOT
ATOM      1  C   UNL     1      -7.680  -0.982 -31.315  1.00  0.00     0.048 A 
ATOM      2  C   UNL     1      -8.758  -1.866 -31.514  1.00  0.00     0.026 A 
ATOM      3  C   UNL     1      -8.882  -3.058 -30.792  1.00  0.00     0.002 A 
ATOM      4  C   UNL     1      -7.911  -3.418 -29.869  1.00  0.00     0.001 A 
ATOM      5  C   UNL     1      -6.811  -2.587 -29.673  1.00  0.00     0.018 A 
ATOM      6  C   UNL     1      -6.685  -1.379 -30.387  1.00  0.00     0.083 A 
ENDROOT
BRANCH   1   7
ATOM      7  N   UNL     1      -7.520   0.158 -32.123  1.00  0.00    -0.387 N 
ATOM      8  C   UNL     1      -8.303   0.299 -33.338  1.00  0.00     0.139 C 
ATOM      9  H   UNL     1      -7.544   1.007 -31.550  1.00  0.00     0.160 HD
ENDBRANCH   1   7
BRANCH   6  10
ATOM     10  C   UNL     1      -5.454  -0.590 -30.089  1.00  0.00     0.339 C 
ATOM     11  O   UNL     1      -5.290   0.034 -29.051  1.00  0.00    -0.246 OA
BRANCH  10  12
ATOM     12  O   UNL     1      -4.597  -0.595 -31.145  1.00  0.00    -0.465 OA
ATOM     13  C   UNL     1      -3.219  -0.550 -30.769  1.00  0.00     0.282 C 
ENDBRANCH  10  12
ENDBRANCH   6  10
TORSDOF 3
ENDMDL
