MODEL 1
REMARK VINA RESULT:      -5.3      0.000      0.000
REMARK SMILES Cc1ccccc1C
REMARK SMILES IDX 1 1 2 2 3 3 4 4 5 5 6 6 7 7 8 8
REMARK H PARENT
ROOT
ATOM      1  C   UNL     1      -4.827  -0.099 -25.702  1.00  0.00     0.044 C 
ATOM      2  C   UNL     1      -3.945  -0.154 -26.918  1.00  0.00    -0.048 A 
ATOM      3  C   UNL     1      -3.009   0.871 -27.135  1.00  0.00     0.003 A 
ATOM      4  C   UNL     1      -2.175   0.852 -28.253  1.00  0.00     0.000 A 
ATOM      5  C   UNL     1      -2.266  -0.193 -29.168  1.00  0.00     0.000 A 
ATOM      6  C   UNL     1      -3.190  -1.217 -28.966  1.00  0.00     0.003 A 
ATOM      7  C   UNL     1      -4.037  -1.211 -27.847  1.00  0.00    -0.048 A 
ATOM      8  C   UNL     1      -5.022  -2.332 -27.663  1.00  0.00     0.044 C 
ENDROOT
TORSDOF 0
ENDMDL
MODEL 2
REMARK VINA RESULT:      -5.3      0.049      2.266
REMARK SMILES Cc1ccccc1C
REMARK SMILES IDX 1 1 2 2 3 3 4 4 5 5 6 6 7 7 8 8
REMARK H PARENT
ROOT
ATOM      1  C   UNL     1      -4.979  -2.377 -27.700  1.00  0.00     0.044 C 
ATOM      2  C   UNL     1      -4.011  -1.241 -27.882  1.00  0.00    -0.048 A 
ATOM      3  C   UNL     1      -3.162  -1.234 -29.000  1.00  0.00     0.003 A 
ATOM      4  C   UNL     1      -2.252  -0.195 -29.199  1.00  0.00     0.000 A 
ATOM      5  C   UNL     1      -2.181   0.850 -28.284  1.00  0.00     0.000 A 
ATOM      6  C   UNL     1      -3.017   0.856 -27.168  1.00  0.00     0.003 A 
ATOM      7  C   UNL     1      -3.937  -0.183 -26.953  1.00  0.00    -0.048 A 
ATOM      8  C   UNL     1      -4.822  -0.142 -25.738  1.00  0.00     0.044 C 
ENDROOT
TORSDOF 0
ENDMDL
MODEL 3
REMARK VINA RESULT:      -5.1     13.601     14.297
REMARK SMILES Cc1ccccc1C
REMARK SMILES IDX 1 1 2 2 3 3 4 4 5 5 6 6 7 7 8 8
REMARK H PARENT
ROOT
ATOM      1  C   UNL     1       7.032  -2.659 -20.468  1.00  0.00     0.044 C 
ATOM      2  C   UNL     1       7.012  -1.915 -19.162  1.00  0.00    -0.048 A 
ATOM      3  C   UNL     1       7.696  -0.693 -19.057  1.00  0.00     0.003 A 
ATOM      4  C   UNL     1       7.698   0.023 -17.860  1.00  0.00     0.000 A 
ATOM      5  C   UNL     1       7.014  -0.472 -16.754  1.00  0.00     0.000 A 
ATOM      6  C   UNL     1       6.331  -1.684 -16.843  1.00  0.00     0.003 A 
ATOM      7  C   UNL     1       6.321  -2.417 -18.040  1.00  0.00    -0.048 A 
ATOM      8  C   UNL     1       5.574  -3.721 -18.098  1.00  0.00     0.044 C 
ENDROOT
TORSDOF 0
ENDMDL
MODEL 4
REMARK VINA RESULT:      -5.0     13.605     14.259
REMARK SMILES Cc1ccccc1C
REMARK SMILES IDX 1 1 2 2 3 3 4 4 5 5 6 6 7 7 8 8
REMARK H PARENT
ROOT
ATOM      1  C   UNL     1       5.553  -3.674 -18.040  1.00  0.00     0.044 C 
ATOM      2  C   UNL     1       6.316  -2.379 -18.004  1.00  0.00    -0.048 A 
ATOM      3  C   UNL     1       6.370  -1.646 -16.807  1.00  0.00     0.003 A 
ATOM      4  C   UNL     1       7.069  -0.441 -16.739  1.00  0.00     0.000 A 
ATOM      5  C   UNL     1       7.723   0.046 -17.866  1.00  0.00     0.000 A 
ATOM      6  C   UNL     1       7.678  -0.670 -19.061  1.00  0.00     0.003 A 
ATOM      7  C   UNL     1       6.978  -1.884 -19.146  1.00  0.00    -0.048 A 
ATOM      8  C   UNL     1       6.950  -2.628 -20.453  1.00  0.00     0.044 C 
ENDROOT
TORSDOF 0
ENDMDL
MODEL 5
REMARK VINA RESULT:      -5.0      0.881      3.555
REMARK SMILES Cc1ccccc1C
REMARK SMILES IDX 1 1 2 2 3 3 4 4 5 5 6 6 7 7 8 8
REMARK H PARENT
ROOT
ATOM      1  C   UNL     1      -1.882  -0.060 -29.956  1.00  0.00     0.044 C 
ATOM      2  C   UNL     1      -2.847  -0.461 -28.876  1.00  0.00    -0.048 A 
ATOM      3  C   UNL     1      -3.454  -1.727 -28.931  1.00  0.00     0.003 A 
ATOM      4  C   UNL     1      -4.354  -2.131 -27.945  1.00  0.00     0.000 A 
ATOM      5  C   UNL     1      -4.658  -1.276 -26.891  1.00  0.00     0.000 A 
ATOM      6  C   UNL     1      -4.065  -0.016 -26.823  1.00  0.00     0.003 A 
ATOM      7  C   UNL     1      -3.158   0.406 -27.808  1.00  0.00    -0.048 A 
ATOM      8  C   UNL     1      -2.539   1.773 -27.702  1.00  0.00     0.044 C 
ENDROOT
TORSDOF 0
ENDMDL
MODEL 6
REMARK VINA RESULT:      -5.0      0.960      2.774
REMARK SMILES Cc1ccccc1C
REMARK SMILES IDX 1 1 2 2 3 3 4 4 5 5 6 6 7 7 8 8
REMARK H PARENT
ROOT
ATOM      1  C   UNL     1      -2.134   0.486 -28.974  1.00  0.00     0.044 C 
ATOM      2  C   UNL     1      -3.164  -0.208 -28.127  1.00  0.00    -0.048 A 
ATOM      3  C   UNL     1      -3.542   0.363 -26.900  1.00  0.00     0.003 A 
ATOM      4  C   UNL     1      -4.495  -0.255 -26.089  1.00  0.00     0.000 A 
ATOM      5  C   UNL     1      -5.082  -1.449 -26.495  1.00  0.00     0.000 A 
ATOM      6  C   UNL     1      -4.716  -2.027 -27.709  1.00  0.00     0.003 A 
ATOM      7  C   UNL     1      -3.758  -1.419 -28.536  1.00  0.00    -0.048 A 
ATOM      8  C   UNL     1      -3.388  -2.073 -29.838  1.00  0.00     0.044 C 
ENDROOT
TORSDOF 0
ENDMDL
MODEL 7
REMARK VINA RESULT:      -4.8     14.191     14.946
REMARK SMILES Cc1ccccc1C
REMARK SMILES IDX 1 1 2 2 3 3 4 4 5 5 6 6 7 7 8 8
REMARK H PARENT
ROOT
ATOM      1  C   UNL     1       6.717  -1.693 -19.940  1.00  0.00     0.044 C 
ATOM      2  C   UNL     1       7.216  -1.103 -18.651  1.00  0.00    -0.048 A 
ATOM      3  C   UNL     1       8.190  -0.091 -18.689  1.00  0.00     0.003 A 
ATOM      4  C   UNL     1       8.675   0.478 -17.512  1.00  0.00     0.000 A 
ATOM      5  C   UNL     1       8.191   0.045 -16.281  1.00  0.00     0.000 A 
ATOM      6  C   UNL     1       7.224  -0.958 -16.227  1.00  0.00     0.003 A 
ATOM      7  C   UNL     1       6.727  -1.542 -17.403  1.00  0.00    -0.048 A 
ATOM      8  C   UNL     1       5.685  -2.622 -17.306  1.00  0.00     0.044 C 
ENDROOT
TORSDOF 0
ENDMDL
MODEL 8
REMARK VINA RESULT:      -4.8     13.428     14.131
REMARK SMILES Cc1ccccc1C
REMARK SMILES IDX 1 1 2 2 3 3 4 4 5 5 6 6 7 7 8 8
REMARK H PARENT
ROOT
ATOM      1  C   UNL     1       6.302  -1.617 -16.046  1.00  0.00     0.044 C 
ATOM      2  C   UNL     1       6.453  -1.873 -17.519  1.00  0.00    -0.048 A 
ATOM      3  C   UNL     1       5.925  -3.053 -18.070  1.00  0.00     0.003 A 
ATOM      4  C   UNL     1       6.048  -3.322 -19.433  1.00  0.00     0.000 A 
ATOM      5  C   UNL     1       6.698  -2.415 -20.264  1.00  0.00     0.000 A 
ATOM      6  C   UNL     1       7.228  -1.240 -19.732  1.00  0.00     0.003 A 
ATOM      7  C   UNL     1       7.114  -0.956 -18.362  1.00  0.00    -0.048 A 
ATOM      8  C   UNL     1       7.698   0.322 -17.824  1.00  0.00     0.044 C 
ENDROOT
TORSDOF 0
ENDMDL
MODEL 9
REMARK VINA RESULT:      -4.8      8.502     10.147
REMARK SMILES Cc1ccccc1C
REMARK SMILES IDX 1 1 2 2 3 3 4 4 5 5 6 6 7 7 8 8
REMARK H PARENT
ROOT
ATOM      1  C   UNL     1      -0.830 -12.058 -27.747  1.00  0.00     0.044 C 
ATOM      2  C   UNL     1      -1.453 -10.722 -27.455  1.00  0.00    -0.048 A 
ATOM      3  C   UNL     1      -2.636 -10.355 -28.120  1.00  0.00     0.003 A 
ATOM      4  C   UNL     1      -3.240  -9.122 -27.873  1.00  0.00     0.000 A 
ATOM      5  C   UNL     1      -2.672  -8.242 -26.958  1.00  0.00     0.000 A 
ATOM      6  C   UNL     1      -1.499  -8.591 -26.291  1.00  0.00     0.003 A 
ATOM      7  C   UNL     1      -0.878  -9.827 -26.530  1.00  0.00    -0.048 A 
ATOM      8  C   UNL     1       0.388 -10.170 -25.792  1.00  0.00     0.044 C 
ENDROOT
TORSDOF 0
ENDMDL
MODEL 10
REMARK VINA RESULT:      -4.8      8.472      9.892
REMARK SMILES Cc1ccccc1C
REMARK SMILES IDX 1 1 2 2 3 3 4 4 5 5 6 6 7 7 8 8
REMARK H PARENT
ROOT
ATOM      1  C   UNL     1       0.418 -10.066 -25.886  1.00  0.00     0.044 C 
ATOM      2  C   UNL     1      -0.888  -9.777 -26.573  1.00  0.00    -0.048 A 
ATOM      3  C   UNL     1      -1.535  -8.553 -26.333  1.00  0.00     0.003 A 
ATOM      4  C   UNL     1      -2.747  -8.252 -26.954  1.00  0.00     0.000 A 
ATOM      5  C   UNL     1      -3.328  -9.170 -27.823  1.00  0.00     0.000 A 
ATOM      6  C   UNL     1      -2.699 -10.389 -28.070  1.00  0.00     0.003 A 
ATOM      7  C   UNL     1      -1.479 -10.707 -27.453  1.00  0.00    -0.048 A 
ATOM      8  C   UNL     1      -0.829 -12.033 -27.743  1.00  0.00     0.044 C 
ENDROOT
TORSDOF 0
ENDMDL
