MODEL 1
REMARK VINA RESULT:      -6.1      0.000      0.000
REMARK SMILES C=C(C)[C@@H]1CC=C(C)CC1
REMARK SMILES IDX 8 1 7 2 6 3 5 4 4 5 10 6 9 7 2 8 1 9 3 10
REMARK H PARENT
ROOT
ATOM      1  C   UNL     1       8.736   0.627 -15.547  1.00  0.00     0.039 C 
ATOM      2  C   UNL     1       8.140  -0.109 -16.712  1.00  0.00    -0.077 C 
ATOM      3  C   UNL     1       8.795  -0.257 -17.877  1.00  0.00    -0.027 C 
ATOM      4  C   UNL     1       8.216  -0.948 -19.080  1.00  0.00     0.035 C 
ATOM      5  C   UNL     1       6.696  -1.204 -18.982  1.00  0.00     0.018 C 
ATOM      6  C   UNL     1       6.353  -1.702 -17.565  1.00  0.00     0.013 C 
ATOM      7  C   UNL     1       6.759  -0.678 -16.501  1.00  0.00     0.031 C 
ENDROOT
BRANCH   5   8
ATOM      8  C   UNL     1       6.214  -2.100 -20.125  1.00  0.00    -0.077 C 
ATOM      9  C   UNL     1       5.887  -1.663 -21.354  1.00  0.00     0.008 C 
ATOM     10  C   UNL     1       6.145  -3.573 -19.807  1.00  0.00     0.039 C 
ENDBRANCH   5   8
TORSDOF 1
ENDMDL
MODEL 2
REMARK VINA RESULT:      -5.6      0.980      4.415
REMARK SMILES C=C(C)[C@@H]1CC=C(C)CC1
REMARK SMILES IDX 8 1 7 2 6 3 5 4 4 5 10 6 9 7 2 8 1 9 3 10
REMARK H PARENT
ROOT
ATOM      1  C   UNL     1       5.943  -3.198 -20.435  1.00  0.00     0.039 C 
ATOM      2  C   UNL     1       6.519  -2.281 -19.395  1.00  0.00    -0.077 C 
ATOM      3  C   UNL     1       7.357  -1.278 -19.709  1.00  0.00    -0.027 C 
ATOM      4  C   UNL     1       7.989  -0.368 -18.694  1.00  0.00     0.035 C 
ATOM      5  C   UNL     1       7.848  -0.863 -17.238  1.00  0.00     0.018 C 
ATOM      6  C   UNL     1       6.420  -1.394 -17.015  1.00  0.00     0.013 C 
ATOM      7  C   UNL     1       6.100  -2.548 -17.971  1.00  0.00     0.031 C 
ENDROOT
BRANCH   5   8
ATOM      8  C   UNL     1       8.309   0.208 -16.246  1.00  0.00    -0.077 C 
ATOM      9  C   UNL     1       9.144  -0.013 -15.214  1.00  0.00     0.008 C 
ATOM     10  C   UNL     1       7.784   1.598 -16.504  1.00  0.00     0.039 C 
ENDBRANCH   5   8
TORSDOF 1
ENDMDL
MODEL 3
REMARK VINA RESULT:      -5.5     13.016     15.118
REMARK SMILES C=C(C)[C@@H]1CC=C(C)CC1
REMARK SMILES IDX 8 1 7 2 6 3 5 4 4 5 10 6 9 7 2 8 1 9 3 10
REMARK H PARENT
ROOT
ATOM      1  C   UNL     1      -3.100  -8.796 -28.345  1.00  0.00     0.039 C 
ATOM      2  C   UNL     1      -2.047  -9.540 -27.577  1.00  0.00    -0.077 C 
ATOM      3  C   UNL     1      -1.767 -10.834 -27.816  1.00  0.00    -0.027 C 
ATOM      4  C   UNL     1      -0.752 -11.626 -27.040  1.00  0.00     0.035 C 
ATOM      5  C   UNL     1      -0.276 -10.933 -25.745  1.00  0.00     0.018 C 
ATOM      6  C   UNL     1      -0.038  -9.437 -26.024  1.00  0.00     0.013 C 
ATOM      7  C   UNL     1      -1.316  -8.753 -26.519  1.00  0.00     0.031 C 
ENDROOT
BRANCH   5   8
ATOM      8  C   UNL     1       0.908 -11.679 -25.125  1.00  0.00    -0.077 C 
ATOM      9  C   UNL     1       1.744 -11.161 -24.207  1.00  0.00     0.008 C 
ATOM     10  C   UNL     1       1.090 -13.103 -25.590  1.00  0.00     0.039 C 
ENDBRANCH   5   8
TORSDOF 1
ENDMDL
MODEL 4
REMARK VINA RESULT:      -5.4      0.892      4.671
REMARK SMILES C=C(C)[C@@H]1CC=C(C)CC1
REMARK SMILES IDX 8 1 7 2 6 3 5 4 4 5 10 6 9 7 2 8 1 9 3 10
REMARK H PARENT
ROOT
ATOM      1  C   UNL     1       6.003  -1.749 -20.409  1.00  0.00     0.039 C 
ATOM      2  C   UNL     1       6.756  -1.402 -19.159  1.00  0.00    -0.077 C 
ATOM      3  C   UNL     1       6.221  -1.554 -17.935  1.00  0.00    -0.027 C 
ATOM      4  C   UNL     1       6.927  -1.177 -16.662  1.00  0.00     0.035 C 
ATOM      5  C   UNL     1       8.188  -0.313 -16.879  1.00  0.00     0.018 C 
ATOM      6  C   UNL     1       8.990  -0.871 -18.069  1.00  0.00     0.013 C 
ATOM      7  C   UNL     1       8.155  -0.870 -19.353  1.00  0.00     0.031 C 
ENDROOT
BRANCH   5   8
ATOM      8  C   UNL     1       8.975  -0.153 -15.576  1.00  0.00    -0.077 C 
ATOM      9  C   UNL     1       9.128   1.006 -14.912  1.00  0.00     0.008 C 
ATOM     10  C   UNL     1       9.581  -1.421 -15.027  1.00  0.00     0.039 C 
ENDBRANCH   5   8
TORSDOF 1
ENDMDL
MODEL 5
REMARK VINA RESULT:      -5.2     13.765     16.167
REMARK SMILES C=C(C)[C@@H]1CC=C(C)CC1
REMARK SMILES IDX 8 1 7 2 6 3 5 4 4 5 10 6 9 7 2 8 1 9 3 10
REMARK H PARENT
ROOT
ATOM      1  C   UNL     1      -7.462  -3.005 -28.823  1.00  0.00     0.039 C 
ATOM      2  C   UNL     1      -6.190  -2.217 -28.935  1.00  0.00    -0.077 C 
ATOM      3  C   UNL     1      -5.898  -1.479 -30.021  1.00  0.00    -0.027 C 
ATOM      4  C   UNL     1      -4.616  -0.712 -30.189  1.00  0.00     0.035 C 
ATOM      5  C   UNL     1      -3.526  -1.082 -29.160  1.00  0.00     0.018 C 
ATOM      6  C   UNL     1      -4.167  -1.218 -27.766  1.00  0.00     0.013 C 
ATOM      7  C   UNL     1      -5.254  -2.297 -27.755  1.00  0.00     0.031 C 
ENDROOT
BRANCH   5   8
ATOM      8  C   UNL     1      -2.341  -0.118 -29.244  1.00  0.00    -0.077 C 
ATOM      9  C   UNL     1      -1.531   0.009 -30.310  1.00  0.00     0.008 C 
ATOM     10  C   UNL     1      -2.124   0.748 -28.028  1.00  0.00     0.039 C 
ENDBRANCH   5   8
TORSDOF 1
ENDMDL
MODEL 6
REMARK VINA RESULT:      -5.2     14.023     14.778
REMARK SMILES C=C(C)[C@@H]1CC=C(C)CC1
REMARK SMILES IDX 8 1 7 2 6 3 5 4 4 5 10 6 9 7 2 8 1 9 3 10
REMARK H PARENT
ROOT
ATOM      1  C   UNL     1      -6.069  -1.225 -24.263  1.00  0.00     0.039 C 
ATOM      2  C   UNL     1      -5.318  -1.065 -25.553  1.00  0.00    -0.077 C 
ATOM      3  C   UNL     1      -5.402  -1.967 -26.546  1.00  0.00    -0.027 C 
ATOM      4  C   UNL     1      -4.633  -1.865 -27.834  1.00  0.00     0.035 C 
ATOM      5  C   UNL     1      -3.504  -0.812 -27.806  1.00  0.00     0.018 C 
ATOM      6  C   UNL     1      -4.012   0.463 -27.108  1.00  0.00     0.013 C 
ATOM      7  C   UNL     1      -4.462   0.171 -25.673  1.00  0.00     0.031 C 
ENDROOT
BRANCH   5   8
ATOM      8  C   UNL     1      -2.912  -0.603 -29.202  1.00  0.00    -0.077 C 
ATOM      9  C   UNL     1      -1.871   0.202 -29.479  1.00  0.00     0.008 C 
ATOM     10  C   UNL     1      -3.562  -1.400 -30.306  1.00  0.00     0.039 C 
ENDBRANCH   5   8
TORSDOF 1
ENDMDL
MODEL 7
REMARK VINA RESULT:      -5.1     14.647     17.924
REMARK SMILES C=C(C)[C@@H]1CC=C(C)CC1
REMARK SMILES IDX 8 1 7 2 6 3 5 4 4 5 10 6 9 7 2 8 1 9 3 10
REMARK H PARENT
ROOT
ATOM      1  C   UNL     1      -7.674   1.145 -32.962  1.00  0.00     0.039 C 
ATOM      2  C   UNL     1      -6.584   0.632 -32.067  1.00  0.00    -0.077 C 
ATOM      3  C   UNL     1      -6.760  -0.430 -31.261  1.00  0.00    -0.027 C 
ATOM      4  C   UNL     1      -5.709  -0.947 -30.319  1.00  0.00     0.035 C 
ATOM      5  C   UNL     1      -4.520   0.018 -30.119  1.00  0.00     0.018 C 
ATOM      6  C   UNL     1      -4.111   0.613 -31.479  1.00  0.00     0.013 C 
ATOM      7  C   UNL     1      -5.273   1.375 -32.125  1.00  0.00     0.031 C 
ENDROOT
BRANCH   5   8
ATOM      8  C   UNL     1      -3.392  -0.656 -29.334  1.00  0.00    -0.077 C 
ATOM      9  C   UNL     1      -3.474  -1.872 -28.766  1.00  0.00     0.008 C 
ATOM     10  C   UNL     1      -2.107   0.131 -29.244  1.00  0.00     0.039 C 
ENDBRANCH   5   8
TORSDOF 1
ENDMDL
MODEL 8
REMARK VINA RESULT:      -5.1      1.382      2.459
REMARK SMILES C=C(C)[C@@H]1CC=C(C)CC1
REMARK SMILES IDX 8 1 7 2 6 3 5 4 4 5 10 6 9 7 2 8 1 9 3 10
REMARK H PARENT
ROOT
ATOM      1  C   UNL     1      10.842   1.998 -15.204  1.00  0.00     0.039 C 
ATOM      2  C   UNL     1       9.845   1.161 -15.952  1.00  0.00    -0.077 C 
ATOM      3  C   UNL     1      10.091  -0.118 -16.284  1.00  0.00    -0.027 C 
ATOM      4  C   UNL     1       9.138  -0.975 -17.070  1.00  0.00     0.035 C 
ATOM      5  C   UNL     1       7.990  -0.185 -17.736  1.00  0.00     0.018 C 
ATOM      6  C   UNL     1       7.449   0.861 -16.744  1.00  0.00     0.013 C 
ATOM      7  C   UNL     1       8.546   1.839 -16.311  1.00  0.00     0.031 C 
ENDROOT
BRANCH   5   8
ATOM      8  C   UNL     1       6.942  -1.130 -18.327  1.00  0.00    -0.077 C 
ATOM      9  C   UNL     1       6.748  -1.332 -19.642  1.00  0.00     0.008 C 
ATOM     10  C   UNL     1       6.111  -1.886 -17.319  1.00  0.00     0.039 C 
ENDBRANCH   5   8
TORSDOF 1
ENDMDL
MODEL 9
REMARK VINA RESULT:      -5.1     13.617     14.795
REMARK SMILES C=C(C)[C@@H]1CC=C(C)CC1
REMARK SMILES IDX 8 1 7 2 6 3 5 4 4 5 10 6 9 7 2 8 1 9 3 10
REMARK H PARENT
ROOT
ATOM      1  C   UNL     1      -1.825  -0.111 -30.091  1.00  0.00     0.039 C 
ATOM      2  C   UNL     1      -2.732  -0.223 -28.900  1.00  0.00    -0.077 C 
ATOM      3  C   UNL     1      -3.475  -1.318 -28.667  1.00  0.00    -0.027 C 
ATOM      4  C   UNL     1      -4.427  -1.451 -27.511  1.00  0.00     0.035 C 
ATOM      5  C   UNL     1      -4.720  -0.119 -26.786  1.00  0.00     0.018 C 
ATOM      6  C   UNL     1      -3.407   0.669 -26.619  1.00  0.00     0.013 C 
ATOM      7  C   UNL     1      -2.760   0.968 -27.975  1.00  0.00     0.031 C 
ENDROOT
BRANCH   5   8
ATOM      8  C   UNL     1      -5.509  -0.357 -25.497  1.00  0.00    -0.077 C 
ATOM      9  C   UNL     1      -6.696  -0.985 -25.431  1.00  0.00     0.008 C 
ATOM     10  C   UNL     1      -4.852   0.144 -24.234  1.00  0.00     0.039 C 
ENDBRANCH   5   8
TORSDOF 1
ENDMDL
MODEL 10
REMARK VINA RESULT:      -5.1     13.919     14.718
REMARK SMILES C=C(C)[C@@H]1CC=C(C)CC1
REMARK SMILES IDX 8 1 7 2 6 3 5 4 4 5 10 6 9 7 2 8 1 9 3 10
REMARK H PARENT
ROOT
ATOM      1  C   UNL     1      -6.026  -0.791 -24.280  1.00  0.00     0.039 C 
ATOM      2  C   UNL     1      -5.208  -0.725 -25.537  1.00  0.00    -0.077 C 
ATOM      3  C   UNL     1      -4.296   0.239 -25.748  1.00  0.00    -0.027 C 
ATOM      4  C   UNL     1      -3.489   0.365 -27.010  1.00  0.00     0.035 C 
ATOM      5  C   UNL     1      -4.006  -0.511 -28.172  1.00  0.00     0.018 C 
ATOM      6  C   UNL     1      -4.383  -1.904 -27.632  1.00  0.00     0.013 C 
ATOM      7  C   UNL     1      -5.468  -1.808 -26.554  1.00  0.00     0.031 C 
ENDROOT
BRANCH   5   8
ATOM      8  C   UNL     1      -3.022  -0.508 -29.344  1.00  0.00    -0.077 C 
ATOM      9  C   UNL     1      -1.908   0.243 -29.406  1.00  0.00     0.008 C 
ATOM     10  C   UNL     1      -3.355  -1.453 -30.471  1.00  0.00     0.039 C 
ENDBRANCH   5   8
TORSDOF 1
ENDMDL
