MODEL 1
REMARK VINA RESULT:      -6.0      0.000      0.000
REMARK SMILES C1=CC2=CCCC[C@H]2C1
REMARK SMILES IDX 6 1 5 2 4 3 3 4 2 5 1 6 9 7 8 8 7 9
REMARK H PARENT
ROOT
ATOM      1  C   UNL     1       7.828   0.435 -17.550  1.00  0.00     0.005 C 
ATOM      2  C   UNL     1       7.394  -0.375 -16.314  1.00  0.00     0.028 C 
ATOM      3  C   UNL     1       6.585  -1.607 -16.618  1.00  0.00    -0.023 C 
ATOM      4  C   UNL     1       6.368  -2.007 -17.874  1.00  0.00    -0.049 C 
ATOM      5  C   UNL     1       5.792  -3.241 -18.324  1.00  0.00    -0.001 C 
ATOM      6  C   UNL     1       6.125  -3.455 -19.603  1.00  0.00    -0.026 C 
ATOM      7  C   UNL     1       6.997  -2.357 -20.148  1.00  0.00     0.035 C 
ATOM      8  C   UNL     1       6.850  -1.260 -19.090  1.00  0.00     0.022 C 
ATOM      9  C   UNL     1       8.102  -0.447 -18.776  1.00  0.00     0.009 C 
ENDROOT
TORSDOF 0
ENDMDL
MODEL 2
REMARK VINA RESULT:      -5.6     13.592     14.411
REMARK SMILES C1=CC2=CCCC[C@H]2C1
REMARK SMILES IDX 6 1 5 2 4 3 3 4 2 5 1 6 9 7 8 8 7 9
REMARK H PARENT
ROOT
ATOM      1  C   UNL     1      -2.450  -0.143 -29.532  1.00  0.00     0.005 C 
ATOM      2  C   UNL     1      -1.992   0.826 -28.425  1.00  0.00     0.028 C 
ATOM      3  C   UNL     1      -2.866   0.843 -27.200  1.00  0.00    -0.023 C 
ATOM      4  C   UNL     1      -3.888  -0.005 -27.060  1.00  0.00    -0.049 C 
ATOM      5  C   UNL     1      -4.686  -0.245 -25.893  1.00  0.00    -0.001 C 
ATOM      6  C   UNL     1      -5.307  -1.426 -26.005  1.00  0.00    -0.026 C 
ATOM      7  C   UNL     1      -4.962  -2.122 -27.294  1.00  0.00     0.035 C 
ATOM      8  C   UNL     1      -4.301  -1.006 -28.106  1.00  0.00     0.022 C 
ATOM      9  C   UNL     1      -3.116  -1.410 -28.979  1.00  0.00     0.009 C 
ENDROOT
TORSDOF 0
ENDMDL
MODEL 3
REMARK VINA RESULT:      -5.6     13.424     15.228
REMARK SMILES C1=CC2=CCCC[C@H]2C1
REMARK SMILES IDX 6 1 5 2 4 3 3 4 2 5 1 6 9 7 8 8 7 9
REMARK H PARENT
ROOT
ATOM      1  C   UNL     1       0.066 -10.898 -27.354  1.00  0.00     0.005 C 
ATOM      2  C   UNL     1       0.248  -9.646 -26.475  1.00  0.00     0.028 C 
ATOM      3  C   UNL     1      -0.938  -8.720 -26.440  1.00  0.00    -0.023 C 
ATOM      4  C   UNL     1      -2.087  -9.036 -27.043  1.00  0.00    -0.049 C 
ATOM      5  C   UNL     1      -3.352  -8.366 -26.945  1.00  0.00    -0.001 C 
ATOM      6  C   UNL     1      -4.332  -9.192 -27.331  1.00  0.00    -0.026 C 
ATOM      7  C   UNL     1      -3.805 -10.546 -27.723  1.00  0.00     0.035 C 
ATOM      8  C   UNL     1      -2.300 -10.291 -27.846  1.00  0.00     0.022 C 
ATOM      9  C   UNL     1      -1.381 -11.412 -27.368  1.00  0.00     0.009 C 
ENDROOT
TORSDOF 0
ENDMDL
MODEL 4
REMARK VINA RESULT:      -5.6     13.387     15.122
REMARK SMILES C1=CC2=CCCC[C@H]2C1
REMARK SMILES IDX 6 1 5 2 4 3 3 4 2 5 1 6 9 7 8 8 7 9
REMARK H PARENT
ROOT
ATOM      1  C   UNL     1       0.480  -9.685 -26.559  1.00  0.00     0.005 C 
ATOM      2  C   UNL     1       0.222 -11.095 -27.124  1.00  0.00     0.028 C 
ATOM      3  C   UNL     1      -1.222 -11.408 -27.408  1.00  0.00    -0.023 C 
ATOM      4  C   UNL     1      -2.175 -10.482 -27.277  1.00  0.00    -0.049 C 
ATOM      5  C   UNL     1      -3.548 -10.560 -27.685  1.00  0.00    -0.001 C 
ATOM      6  C   UNL     1      -4.063  -9.327 -27.778  1.00  0.00    -0.026 C 
ATOM      7  C   UNL     1      -3.047  -8.267 -27.447  1.00  0.00     0.035 C 
ATOM      8  C   UNL     1      -1.924  -9.078 -26.794  1.00  0.00     0.022 C 
ATOM      9  C   UNL     1      -0.498  -8.635 -27.105  1.00  0.00     0.009 C 
ENDROOT
TORSDOF 0
ENDMDL
MODEL 5
REMARK VINA RESULT:      -5.5     13.551     14.571
REMARK SMILES C1=CC2=CCCC[C@H]2C1
REMARK SMILES IDX 6 1 5 2 4 3 3 4 2 5 1 6 9 7 8 8 7 9
REMARK H PARENT
ROOT
ATOM      1  C   UNL     1      -5.500  -1.304 -26.497  1.00  0.00     0.005 C 
ATOM      2  C   UNL     1      -5.023  -2.425 -27.439  1.00  0.00     0.028 C 
ATOM      3  C   UNL     1      -3.978  -2.009 -28.439  1.00  0.00    -0.023 C 
ATOM      4  C   UNL     1      -3.442  -0.785 -28.419  1.00  0.00    -0.049 C 
ATOM      5  C   UNL     1      -2.318  -0.299 -29.166  1.00  0.00    -0.001 C 
ATOM      6  C   UNL     1      -1.830   0.802 -28.581  1.00  0.00    -0.026 C 
ATOM      7  C   UNL     1      -2.594   1.164 -27.336  1.00  0.00     0.035 C 
ATOM      8  C   UNL     1      -3.850   0.297 -27.456  1.00  0.00     0.022 C 
ATOM      9  C   UNL     1      -4.393  -0.296 -26.159  1.00  0.00     0.009 C 
ENDROOT
TORSDOF 0
ENDMDL
MODEL 6
REMARK VINA RESULT:      -5.5     13.041     14.674
REMARK SMILES C1=CC2=CCCC[C@H]2C1
REMARK SMILES IDX 6 1 5 2 4 3 3 4 2 5 1 6 9 7 8 8 7 9
REMARK H PARENT
ROOT
ATOM      1  C   UNL     1      -1.719  -8.583 -27.548  1.00  0.00     0.005 C 
ATOM      2  C   UNL     1      -2.414  -9.833 -28.120  1.00  0.00     0.028 C 
ATOM      3  C   UNL     1      -1.705 -11.132 -27.847  1.00  0.00    -0.023 C 
ATOM      4  C   UNL     1      -0.618 -11.183 -27.072  1.00  0.00    -0.049 C 
ATOM      5  C   UNL     1       0.054 -12.344 -26.563  1.00  0.00    -0.001 C 
ATOM      6  C   UNL     1       0.813 -12.004 -25.514  1.00  0.00    -0.026 C 
ATOM      7  C   UNL     1       0.708 -10.537 -25.196  1.00  0.00     0.035 C 
ATOM      8  C   UNL     1       0.030  -9.975 -26.449  1.00  0.00     0.022 C 
ATOM      9  C   UNL     1      -0.986  -8.858 -26.228  1.00  0.00     0.009 C 
ENDROOT
TORSDOF 0
ENDMDL
MODEL 7
REMARK VINA RESULT:      -5.5     13.906     14.788
REMARK SMILES C1=CC2=CCCC[C@H]2C1
REMARK SMILES IDX 6 1 5 2 4 3 3 4 2 5 1 6 9 7 8 8 7 9
REMARK H PARENT
ROOT
ATOM      1  C   UNL     1      -4.939  -1.665 -26.541  1.00  0.00     0.005 C 
ATOM      2  C   UNL     1      -4.523  -0.239 -26.135  1.00  0.00     0.028 C 
ATOM      3  C   UNL     1      -3.520   0.413 -27.050  1.00  0.00    -0.023 C 
ATOM      4  C   UNL     1      -3.122  -0.177 -28.180  1.00  0.00    -0.049 C 
ATOM      5  C   UNL     1      -2.335   0.382 -29.241  1.00  0.00    -0.001 C 
ATOM      6  C   UNL     1      -2.501  -0.341 -30.356  1.00  0.00    -0.026 C 
ATOM      7  C   UNL     1      -3.460  -1.481 -30.149  1.00  0.00     0.035 C 
ATOM      8  C   UNL     1      -3.578  -1.542 -28.624  1.00  0.00     0.022 C 
ATOM      9  C   UNL     1      -4.958  -1.871 -28.063  1.00  0.00     0.009 C 
ENDROOT
TORSDOF 0
ENDMDL
MODEL 8
REMARK VINA RESULT:      -5.4     13.682     14.538
REMARK SMILES C1=CC2=CCCC[C@H]2C1
REMARK SMILES IDX 6 1 5 2 4 3 3 4 2 5 1 6 9 7 8 8 7 9
REMARK H PARENT
ROOT
ATOM      1  C   UNL     1      -1.994   0.946 -28.166  1.00  0.00     0.005 C 
ATOM      2  C   UNL     1      -2.104  -0.047 -29.339  1.00  0.00     0.028 C 
ATOM      3  C   UNL     1      -3.070  -1.180 -29.120  1.00  0.00    -0.023 C 
ATOM      4  C   UNL     1      -3.843  -1.237 -28.031  1.00  0.00    -0.049 C 
ATOM      5  C   UNL     1      -4.934  -2.129 -27.765  1.00  0.00    -0.001 C 
ATOM      6  C   UNL     1      -5.709  -1.620 -26.800  1.00  0.00    -0.026 C 
ATOM      7  C   UNL     1      -5.206  -0.285 -26.320  1.00  0.00     0.035 C 
ATOM      8  C   UNL     1      -3.795  -0.232 -26.911  1.00  0.00     0.022 C 
ATOM      9  C   UNL     1      -3.319   1.128 -27.411  1.00  0.00     0.009 C 
ENDROOT
TORSDOF 0
ENDMDL
MODEL 9
REMARK VINA RESULT:      -5.3      0.711      3.731
REMARK SMILES C1=CC2=CCCC[C@H]2C1
REMARK SMILES IDX 6 1 5 2 4 3 3 4 2 5 1 6 9 7 8 8 7 9
REMARK H PARENT
ROOT
ATOM      1  C   UNL     1       6.027  -3.231 -19.669  1.00  0.00     0.005 C 
ATOM      2  C   UNL     1       7.380  -2.860 -20.305  1.00  0.00     0.028 C 
ATOM      3  C   UNL     1       8.056  -1.660 -19.698  1.00  0.00    -0.023 C 
ATOM      4  C   UNL     1       7.556  -1.049 -18.620  1.00  0.00    -0.049 C 
ATOM      5  C   UNL     1       8.168  -0.030 -17.816  1.00  0.00    -0.001 C 
ATOM      6  C   UNL     1       7.568   0.022 -16.621  1.00  0.00    -0.026 C 
ATOM      7  C   UNL     1       6.471  -1.000 -16.496  1.00  0.00     0.035 C 
ATOM      8  C   UNL     1       6.271  -1.448 -17.946  1.00  0.00     0.022 C 
ATOM      9  C   UNL     1       5.971  -2.928 -18.165  1.00  0.00     0.009 C 
ENDROOT
TORSDOF 0
ENDMDL
MODEL 10
REMARK VINA RESULT:      -5.2     14.105     15.410
REMARK SMILES C1=CC2=CCCC[C@H]2C1
REMARK SMILES IDX 6 1 5 2 4 3 3 4 2 5 1 6 9 7 8 8 7 9
REMARK H PARENT
ROOT
ATOM      1  C   UNL     1      -5.830  -2.156 -28.297  1.00  0.00     0.005 C 
ATOM      2  C   UNL     1      -5.477  -1.259 -27.096  1.00  0.00     0.028 C 
ATOM      3  C   UNL     1      -4.162  -0.536 -27.211  1.00  0.00    -0.023 C 
ATOM      4  C   UNL     1      -3.428  -0.596 -28.326  1.00  0.00    -0.049 C 
ATOM      5  C   UNL     1      -2.267   0.174 -28.665  1.00  0.00    -0.001 C 
ATOM      6  C   UNL     1      -2.074   0.141 -29.989  1.00  0.00    -0.026 C 
ATOM      7  C   UNL     1      -3.130  -0.668 -30.692  1.00  0.00     0.035 C 
ATOM      8  C   UNL     1      -3.799  -1.414 -29.534  1.00  0.00     0.022 C 
ATOM      9  C   UNL     1      -5.311  -1.600 -29.630  1.00  0.00     0.009 C 
ENDROOT
TORSDOF 0
ENDMDL
