MODEL 1
REMARK VINA RESULT:      -6.4      0.000      0.000
REMARK SMILES COc1cc(/C=C/C(=O)O)ccc1O
REMARK SMILES IDX 6 1 7 2 5 3 3 4 13 5 4 6 12 7 11 8 2 9 1 10 14 11 8 13 9 14
REMARK SMILES IDX 10 15
REMARK H PARENT 14 12 10 16
ROOT
ATOM      1  C   UNL     1      -8.518   1.313 -31.713  1.00  0.00     0.016 C 
ATOM      2  C   UNL     1      -8.863   0.840 -32.921  1.00  0.00     0.094 C 
ENDROOT
BRANCH   1   3
ATOM      3  C   UNL     1      -7.129   1.385 -31.238  1.00  0.00    -0.021 A 
ATOM      4  C   UNL     1      -4.968   0.299 -30.986  1.00  0.00     0.161 A 
ATOM      5  C   UNL     1      -4.475   1.473 -30.406  1.00  0.00     0.157 A 
ATOM      6  C   UNL     1      -6.299   0.264 -31.406  1.00  0.00     0.058 A 
ATOM      7  C   UNL     1      -5.275   2.597 -30.246  1.00  0.00     0.051 A 
ATOM      8  C   UNL     1      -6.603   2.554 -30.669  1.00  0.00     0.012 A 
BRANCH   4   9
ATOM      9  O   UNL     1      -4.059  -0.724 -31.082  1.00  0.00    -0.493 OA
ATOM     10  C   UNL     1      -4.059  -1.678 -30.025  1.00  0.00     0.278 C 
ENDBRANCH   4   9
BRANCH   5  11
ATOM     11  O   UNL     1      -3.176   1.540 -29.983  1.00  0.00    -0.504 OA
ATOM     12  H   UNL     1      -3.007   2.492 -29.838  1.00  0.00     0.293 HD
ENDBRANCH   5  11
ENDBRANCH   1   3
BRANCH   2  13
ATOM     13  C   UNL     1     -10.287   0.836 -33.310  1.00  0.00     0.328 C 
ATOM     14  O   UNL     1     -10.862  -0.107 -33.828  1.00  0.00    -0.247 OA
BRANCH  13  15
ATOM     15  O   UNL     1     -10.893   2.005 -33.027  1.00  0.00    -0.478 OA
ATOM     16  H   UNL     1     -10.807   2.701 -33.701  1.00  0.00     0.297 HD
ENDBRANCH  13  15
ENDBRANCH   2  13
TORSDOF 5
ENDMDL
MODEL 2
REMARK VINA RESULT:      -6.3      1.245      1.249
REMARK SMILES COc1cc(/C=C/C(=O)O)ccc1O
REMARK SMILES IDX 6 1 7 2 5 3 3 4 13 5 4 6 12 7 11 8 2 9 1 10 14 11 8 13 9 14
REMARK SMILES IDX 10 15
REMARK H PARENT 14 12 10 16
ROOT
ATOM      1  C   UNL     1      -8.316   0.596 -32.008  1.00  0.00     0.016 C 
ATOM      2  C   UNL     1      -8.899   0.737 -33.209  1.00  0.00     0.094 C 
ENDROOT
BRANCH   1   3
ATOM      3  C   UNL     1      -6.860   0.562 -31.812  1.00  0.00    -0.021 A 
ATOM      4  C   UNL     1      -4.921  -0.588 -30.901  1.00  0.00     0.161 A 
ATOM      5  C   UNL     1      -4.106   0.410 -31.447  1.00  0.00     0.157 A 
ATOM      6  C   UNL     1      -6.301  -0.508 -31.094  1.00  0.00     0.058 A 
ATOM      7  C   UNL     1      -4.638   1.467 -32.174  1.00  0.00     0.051 A 
ATOM      8  C   UNL     1      -6.017   1.540 -32.361  1.00  0.00     0.012 A 
BRANCH   4   9
ATOM      9  O   UNL     1      -4.250  -1.569 -30.216  1.00  0.00    -0.493 OA
ATOM     10  C   UNL     1      -4.560  -1.704 -28.832  1.00  0.00     0.278 C 
ENDBRANCH   4   9
BRANCH   5  11
ATOM     11  O   UNL     1      -2.749   0.362 -31.277  1.00  0.00    -0.504 OA
ATOM     12  H   UNL     1      -2.540   1.122 -30.699  1.00  0.00     0.293 HD
ENDBRANCH   5  11
ENDBRANCH   1   3
BRANCH   2  13
ATOM     13  C   UNL     1     -10.371   0.786 -33.292  1.00  0.00     0.328 C 
ATOM     14  O   UNL     1     -11.080  -0.157 -33.600  1.00  0.00    -0.247 OA
BRANCH  13  15
ATOM     15  O   UNL     1     -10.856   2.004 -32.983  1.00  0.00    -0.478 OA
ATOM     16  H   UNL     1     -11.782   2.028 -32.683  1.00  0.00     0.297 HD
ENDBRANCH  13  15
ENDBRANCH   2  13
TORSDOF 5
ENDMDL
MODEL 3
REMARK VINA RESULT:      -6.1      5.711      6.815
REMARK SMILES COc1cc(/C=C/C(=O)O)ccc1O
REMARK SMILES IDX 6 1 7 2 5 3 3 4 13 5 4 6 12 7 11 8 2 9 1 10 14 11 8 13 9 14
REMARK SMILES IDX 10 15
REMARK H PARENT 14 12 10 16
ROOT
ATOM      1  C   UNL     1      -5.284  -1.357 -25.832  1.00  0.00     0.016 C 
ATOM      2  C   UNL     1      -6.018  -0.491 -25.116  1.00  0.00     0.094 C 
ENDROOT
BRANCH   1   3
ATOM      3  C   UNL     1      -4.407  -0.955 -26.940  1.00  0.00    -0.021 A 
ATOM      4  C   UNL     1      -2.947   0.726 -27.917  1.00  0.00     0.161 A 
ATOM      5  C   UNL     1      -2.695  -0.149 -28.980  1.00  0.00     0.157 A 
ATOM      6  C   UNL     1      -3.802   0.313 -26.895  1.00  0.00     0.058 A 
ATOM      7  C   UNL     1      -3.270  -1.412 -29.034  1.00  0.00     0.051 A 
ATOM      8  C   UNL     1      -4.123  -1.817 -28.009  1.00  0.00     0.012 A 
BRANCH   4   9
ATOM      9  O   UNL     1      -2.303   1.934 -28.000  1.00  0.00    -0.493 OA
ATOM     10  C   UNL     1      -3.110   3.066 -28.306  1.00  0.00     0.278 C 
ENDBRANCH   4   9
BRANCH   5  11
ATOM     11  O   UNL     1      -1.862   0.224 -29.998  1.00  0.00    -0.504 OA
ATOM     12  H   UNL     1      -0.978   0.298 -29.587  1.00  0.00     0.293 HD
ENDBRANCH   5  11
ENDBRANCH   1   3
BRANCH   2  13
ATOM     13  C   UNL     1      -6.847  -0.998 -24.005  1.00  0.00     0.328 C 
ATOM     14  O   UNL     1      -7.724  -0.361 -23.446  1.00  0.00    -0.247 OA
BRANCH  13  15
ATOM     15  O   UNL     1      -6.526  -2.263 -23.670  1.00  0.00    -0.478 OA
ATOM     16  H   UNL     1      -5.629  -2.392 -23.315  1.00  0.00     0.297 HD
ENDBRANCH  13  15
ENDBRANCH   2  13
TORSDOF 5
ENDMDL
MODEL 4
REMARK VINA RESULT:      -6.1      3.771      6.392
REMARK SMILES COc1cc(/C=C/C(=O)O)ccc1O
REMARK SMILES IDX 6 1 7 2 5 3 3 4 13 5 4 6 12 7 11 8 2 9 1 10 14 11 8 13 9 14
REMARK SMILES IDX 10 15
REMARK H PARENT 14 12 10 16
ROOT
ATOM      1  C   UNL     1      -4.133   0.080 -26.447  1.00  0.00     0.016 C 
ATOM      2  C   UNL     1      -5.113  -0.608 -25.840  1.00  0.00     0.094 C 
ENDROOT
BRANCH   1   3
ATOM      3  C   UNL     1      -3.781  -0.089 -27.863  1.00  0.00    -0.021 A 
ATOM      4  C   UNL     1      -4.503  -0.595 -30.129  1.00  0.00     0.161 A 
ATOM      5  C   UNL     1      -3.193  -0.376 -30.567  1.00  0.00     0.157 A 
ATOM      6  C   UNL     1      -4.792  -0.444 -28.772  1.00  0.00     0.058 A 
ATOM      7  C   UNL     1      -2.183  -0.008 -29.688  1.00  0.00     0.051 A 
ATOM      8  C   UNL     1      -2.480   0.141 -28.334  1.00  0.00     0.012 A 
BRANCH   4   9
ATOM      9  O   UNL     1      -5.390  -0.946 -31.115  1.00  0.00    -0.493 OA
ATOM     10  C   UNL     1      -6.622  -0.233 -31.147  1.00  0.00     0.278 C 
ENDBRANCH   4   9
BRANCH   5  11
ATOM     11  O   UNL     1      -2.876  -0.516 -31.891  1.00  0.00    -0.504 OA
ATOM     12  H   UNL     1      -2.298  -1.304 -31.930  1.00  0.00     0.293 HD
ENDBRANCH   5  11
ENDBRANCH   1   3
BRANCH   2  13
ATOM     13  C   UNL     1      -5.404  -0.342 -24.418  1.00  0.00     0.328 C 
ATOM     14  O   UNL     1      -6.179  -0.990 -23.735  1.00  0.00    -0.247 OA
BRANCH  13  15
ATOM     15  O   UNL     1      -4.706   0.709 -23.946  1.00  0.00    -0.478 OA
ATOM     16  H   UNL     1      -4.335   0.605 -23.053  1.00  0.00     0.297 HD
ENDBRANCH  13  15
ENDBRANCH   2  13
TORSDOF 5
ENDMDL
MODEL 5
REMARK VINA RESULT:      -6.1      0.950      2.464
REMARK SMILES COc1cc(/C=C/C(=O)O)ccc1O
REMARK SMILES IDX 6 1 7 2 5 3 3 4 13 5 4 6 12 7 11 8 2 9 1 10 14 11 8 13 9 14
REMARK SMILES IDX 10 15
REMARK H PARENT 14 12 10 16
ROOT
ATOM      1  C   UNL     1      -8.590   1.333 -31.612  1.00  0.00     0.016 C 
ATOM      2  C   UNL     1      -9.107   0.664 -32.654  1.00  0.00     0.094 C 
ENDROOT
BRANCH   1   3
ATOM      3  C   UNL     1      -7.165   1.303 -31.255  1.00  0.00    -0.021 A 
ATOM      4  C   UNL     1      -5.262   2.427 -30.241  1.00  0.00     0.161 A 
ATOM      5  C   UNL     1      -4.485   1.293 -30.507  1.00  0.00     0.157 A 
ATOM      6  C   UNL     1      -6.607   2.422 -30.614  1.00  0.00     0.058 A 
ATOM      7  C   UNL     1      -5.022   0.171 -31.124  1.00  0.00     0.051 A 
ATOM      8  C   UNL     1      -6.367   0.175 -31.494  1.00  0.00     0.012 A 
BRANCH   4   9
ATOM      9  O   UNL     1      -4.593   3.452 -29.622  1.00  0.00    -0.493 OA
ATOM     10  C   UNL     1      -4.395   4.637 -30.385  1.00  0.00     0.278 C 
ENDBRANCH   4   9
BRANCH   5  11
ATOM     11  O   UNL     1      -3.164   1.265 -30.155  1.00  0.00    -0.504 OA
ATOM     12  H   UNL     1      -2.954   2.181 -29.887  1.00  0.00     0.293 HD
ENDBRANCH   5  11
ENDBRANCH   1   3
BRANCH   2  13
ATOM     13  C   UNL     1     -10.550   0.784 -32.941  1.00  0.00     0.328 C 
ATOM     14  O   UNL     1     -11.316  -0.158 -33.053  1.00  0.00    -0.247 OA
BRANCH  13  15
ATOM     15  O   UNL     1     -10.936   2.068 -33.066  1.00  0.00    -0.478 OA
ATOM     16  H   UNL     1     -10.221   2.714 -33.207  1.00  0.00     0.297 HD
ENDBRANCH  13  15
ENDBRANCH   2  13
TORSDOF 5
ENDMDL
MODEL 6
REMARK VINA RESULT:      -6.1     17.562     20.585
REMARK SMILES COc1cc(/C=C/C(=O)O)ccc1O
REMARK SMILES IDX 6 1 7 2 5 3 3 4 13 5 4 6 12 7 11 8 2 9 1 10 14 11 8 13 9 14
REMARK SMILES IDX 10 15
REMARK H PARENT 14 12 10 16
ROOT
ATOM      1  C   UNL     1       7.719  -1.351 -19.093  1.00  0.00     0.016 C 
ATOM      2  C   UNL     1       6.465  -1.497 -19.550  1.00  0.00     0.094 C 
ENDROOT
BRANCH   1   3
ATOM      3  C   UNL     1       8.069  -0.510 -17.940  1.00  0.00    -0.021 A 
ATOM      4  C   UNL     1       9.629  -0.008 -16.144  1.00  0.00     0.161 A 
ATOM      5  C   UNL     1       8.818   1.073 -15.778  1.00  0.00     0.157 A 
ATOM      6  C   UNL     1       9.250  -0.793 -17.233  1.00  0.00     0.058 A 
ATOM      7  C   UNL     1       7.656   1.379 -16.475  1.00  0.00     0.051 A 
ATOM      8  C   UNL     1       7.285   0.589 -17.562  1.00  0.00     0.012 A 
BRANCH   4   9
ATOM      9  O   UNL     1      10.745  -0.180 -15.365  1.00  0.00    -0.493 OA
ATOM     10  C   UNL     1      11.952   0.406 -15.843  1.00  0.00     0.278 C 
ENDBRANCH   4   9
BRANCH   5  11
ATOM     11  O   UNL     1       9.160   1.863 -14.715  1.00  0.00    -0.504 OA
ATOM     12  H   UNL     1       9.997   2.292 -14.979  1.00  0.00     0.293 HD
ENDBRANCH   5  11
ENDBRANCH   1   3
BRANCH   2  13
ATOM     13  C   UNL     1       6.219  -2.388 -20.701  1.00  0.00     0.328 C 
ATOM     14  O   UNL     1       5.578  -2.081 -21.692  1.00  0.00    -0.247 OA
BRANCH  13  15
ATOM     15  O   UNL     1       6.789  -3.597 -20.536  1.00  0.00    -0.478 OA
ATOM     16  H   UNL     1       6.218  -4.286 -20.151  1.00  0.00     0.297 HD
ENDBRANCH  13  15
ENDBRANCH   2  13
TORSDOF 5
ENDMDL
MODEL 7
REMARK VINA RESULT:      -6.0      4.647      5.580
REMARK SMILES COc1cc(/C=C/C(=O)O)ccc1O
REMARK SMILES IDX 6 1 7 2 5 3 3 4 13 5 4 6 12 7 11 8 2 9 1 10 14 11 8 13 9 14
REMARK SMILES IDX 10 15
REMARK H PARENT 14 12 10 16
ROOT
ATOM      1  C   UNL     1      -9.787  -3.796 -30.449  1.00  0.00     0.016 C 
ATOM      2  C   UNL     1      -9.793  -4.813 -29.573  1.00  0.00     0.094 C 
ENDROOT
BRANCH   1   3
ATOM      3  C   UNL     1      -8.669  -2.852 -30.587  1.00  0.00    -0.021 A 
ATOM      4  C   UNL     1      -7.784  -0.827 -31.602  1.00  0.00     0.161 A 
ATOM      5  C   UNL     1      -6.612  -0.999 -30.857  1.00  0.00     0.157 A 
ATOM      6  C   UNL     1      -8.814  -1.757 -31.456  1.00  0.00     0.058 A 
ATOM      7  C   UNL     1      -6.456  -2.064 -29.981  1.00  0.00     0.051 A 
ATOM      8  C   UNL     1      -7.489  -2.989 -29.841  1.00  0.00     0.012 A 
BRANCH   4   9
ATOM      9  O   UNL     1      -7.792   0.275 -32.419  1.00  0.00    -0.493 OA
ATOM     10  C   UNL     1      -8.562   0.177 -33.612  1.00  0.00     0.278 C 
ENDBRANCH   4   9
BRANCH   5  11
ATOM     11  O   UNL     1      -5.582  -0.105 -30.976  1.00  0.00    -0.504 OA
ATOM     12  H   UNL     1      -5.041  -0.236 -30.174  1.00  0.00     0.293 HD
ENDBRANCH   5  11
ENDBRANCH   1   3
BRANCH   2  13
ATOM     13  C   UNL     1     -10.957  -5.720 -29.534  1.00  0.00     0.328 C 
ATOM     14  O   UNL     1     -11.482  -6.132 -28.514  1.00  0.00    -0.247 OA
BRANCH  13  15
ATOM     15  O   UNL     1     -11.385  -6.048 -30.769  1.00  0.00    -0.478 OA
ATOM     16  H   UNL     1     -10.797  -5.793 -31.502  1.00  0.00     0.297 HD
ENDBRANCH  13  15
ENDBRANCH   2  13
TORSDOF 5
ENDMDL
MODEL 8
REMARK VINA RESULT:      -6.0      1.538      2.659
REMARK SMILES COc1cc(/C=C/C(=O)O)ccc1O
REMARK SMILES IDX 6 1 7 2 5 3 3 4 13 5 4 6 12 7 11 8 2 9 1 10 14 11 8 13 9 14
REMARK SMILES IDX 10 15
REMARK H PARENT 14 12 10 16
ROOT
ATOM      1  C   UNL     1      -8.715  -0.746 -32.121  1.00  0.00     0.016 C 
ATOM      2  C   UNL     1      -9.213   0.493 -32.262  1.00  0.00     0.094 C 
ENDROOT
BRANCH   1   3
ATOM      3  C   UNL     1      -7.556  -1.062 -31.274  1.00  0.00    -0.021 A 
ATOM      4  C   UNL     1      -5.320  -0.473 -30.523  1.00  0.00     0.161 A 
ATOM      5  C   UNL     1      -5.349  -1.573 -29.660  1.00  0.00     0.157 A 
ATOM      6  C   UNL     1      -6.433  -0.218 -31.325  1.00  0.00     0.058 A 
ATOM      7  C   UNL     1      -6.455  -2.409 -29.582  1.00  0.00     0.051 A 
ATOM      8  C   UNL     1      -7.564  -2.148 -30.387  1.00  0.00     0.012 A 
BRANCH   4   9
ATOM      9  O   UNL     1      -4.162   0.261 -30.483  1.00  0.00    -0.493 OA
ATOM     10  C   UNL     1      -4.250   1.561 -29.908  1.00  0.00     0.278 C 
ENDBRANCH   4   9
BRANCH   5  11
ATOM     11  O   UNL     1      -4.274  -1.851 -28.860  1.00  0.00    -0.504 OA
ATOM     12  H   UNL     1      -3.709  -1.056 -28.912  1.00  0.00     0.293 HD
ENDBRANCH   5  11
ENDBRANCH   1   3
BRANCH   2  13
ATOM     13  C   UNL     1     -10.398   0.697 -33.118  1.00  0.00     0.328 C 
ATOM     14  O   UNL     1     -10.862  -0.141 -33.873  1.00  0.00    -0.247 OA
BRANCH  13  15
ATOM     15  O   UNL     1     -10.922   1.930 -32.972  1.00  0.00    -0.478 OA
ATOM     16  H   UNL     1     -10.781   2.541 -33.716  1.00  0.00     0.297 HD
ENDBRANCH  13  15
ENDBRANCH   2  13
TORSDOF 5
ENDMDL
MODEL 9
REMARK VINA RESULT:      -5.9      1.858      5.740
REMARK SMILES COc1cc(/C=C/C(=O)O)ccc1O
REMARK SMILES IDX 6 1 7 2 5 3 3 4 13 5 4 6 12 7 11 8 2 9 1 10 14 11 8 13 9 14
REMARK SMILES IDX 10 15
REMARK H PARENT 14 12 10 16
ROOT
ATOM      1  C   UNL     1      -5.858   0.728 -31.893  1.00  0.00     0.016 C 
ATOM      2  C   UNL     1      -5.188   0.055 -30.944  1.00  0.00     0.094 C 
ENDROOT
BRANCH   1   3
ATOM      3  C   UNL     1      -7.271   0.488 -32.214  1.00  0.00    -0.021 A 
ATOM      4  C   UNL     1      -9.271  -0.854 -31.877  1.00  0.00     0.161 A 
ATOM      5  C   UNL     1      -9.961   0.006 -32.738  1.00  0.00     0.157 A 
ATOM      6  C   UNL     1      -7.923  -0.602 -31.614  1.00  0.00     0.058 A 
ATOM      7  C   UNL     1      -9.339   1.099 -33.327  1.00  0.00     0.051 A 
ATOM      8  C   UNL     1      -7.993   1.343 -33.059  1.00  0.00     0.012 A 
BRANCH   4   9
ATOM      9  O   UNL     1     -10.020  -1.885 -31.368  1.00  0.00    -0.493 OA
ATOM     10  C   UNL     1      -9.302  -2.954 -30.761  1.00  0.00     0.278 C 
ENDBRANCH   4   9
BRANCH   5  11
ATOM     11  O   UNL     1     -11.282  -0.212 -33.017  1.00  0.00    -0.504 OA
ATOM     12  H   UNL     1     -11.405   0.116 -33.929  1.00  0.00     0.293 HD
ENDBRANCH   5  11
ENDBRANCH   1   3
BRANCH   2  13
ATOM     13  C   UNL     1      -3.776   0.393 -30.683  1.00  0.00     0.328 C 
ATOM     14  O   UNL     1      -3.292   0.548 -29.575  1.00  0.00    -0.247 OA
BRANCH  13  15
ATOM     15  O   UNL     1      -3.066   0.514 -31.822  1.00  0.00    -0.478 OA
ATOM     16  H   UNL     1      -3.124   1.377 -32.268  1.00  0.00     0.297 HD
ENDBRANCH  13  15
ENDBRANCH   2  13
TORSDOF 5
ENDMDL
MODEL 10
REMARK VINA RESULT:      -5.9      1.864      5.841
REMARK SMILES COc1cc(/C=C/C(=O)O)ccc1O
REMARK SMILES IDX 6 1 7 2 5 3 3 4 13 5 4 6 12 7 11 8 2 9 1 10 14 11 8 13 9 14
REMARK SMILES IDX 10 15
REMARK H PARENT 14 12 10 16
ROOT
ATOM      1  C   UNL     1      -6.285   1.733 -31.697  1.00  0.00     0.016 C 
ATOM      2  C   UNL     1      -6.110   2.733 -30.819  1.00  0.00     0.094 C 
ENDROOT
BRANCH   1   3
ATOM      3  C   UNL     1      -7.605   1.226 -32.097  1.00  0.00    -0.021 A 
ATOM      4  C   UNL     1      -9.824   0.486 -31.435  1.00  0.00     0.161 A 
ATOM      5  C   UNL     1     -10.140   0.312 -32.787  1.00  0.00     0.157 A 
ATOM      6  C   UNL     1      -8.553   0.951 -31.097  1.00  0.00     0.058 A 
ATOM      7  C   UNL     1      -9.223   0.595 -33.791  1.00  0.00     0.051 A 
ATOM      8  C   UNL     1      -7.955   1.059 -33.444  1.00  0.00     0.012 A 
BRANCH   4   9
ATOM      9  O   UNL     1     -10.834   0.171 -30.562  1.00  0.00    -0.493 OA
ATOM     10  C   UNL     1     -10.463  -0.553 -29.393  1.00  0.00     0.278 C 
ENDBRANCH   4   9
BRANCH   5  11
ATOM     11  O   UNL     1     -11.378  -0.142 -33.153  1.00  0.00    -0.504 OA
ATOM     12  H   UNL     1     -11.250  -1.089 -33.354  1.00  0.00     0.293 HD
ENDBRANCH   5  11
ENDBRANCH   1   3
BRANCH   2  13
ATOM     13  C   UNL     1      -4.740   3.184 -30.507  1.00  0.00     0.328 C 
ATOM     14  O   UNL     1      -4.368   4.345 -30.535  1.00  0.00    -0.247 OA
BRANCH  13  15
ATOM     15  O   UNL     1      -3.931   2.158 -30.179  1.00  0.00    -0.478 OA
ATOM     16  H   UNL     1      -4.025   1.355 -30.722  1.00  0.00     0.297 HD
ENDBRANCH  13  15
ENDBRANCH   2  13
TORSDOF 5
ENDMDL
