MODEL 1
REMARK VINA RESULT:      -7.5      0.000      0.000
REMARK SMILES Oc1cc(O)cc(/C=C/c2ccc(O)c(O)c2)c1
REMARK SMILES IDX 9 1 8 2 10 3 11 4 12 5 13 6 17 7 15 8 14 9 16 11 7 13 6 14
REMARK SMILES IDX 18 15 4 16 2 17 3 18 5 19 1 21
REMARK H PARENT 14 10 16 12 5 20 1 22
ROOT
ATOM      1  C   UNL     1      -6.502   0.559 -31.228  1.00  0.00     0.009 C 
ATOM      2  C   UNL     1      -5.705  -0.339 -30.630  1.00  0.00     0.009 C 
ENDROOT
BRANCH   1   3
ATOM      3  C   UNL     1      -7.895   0.285 -31.612  1.00  0.00    -0.022 A 
ATOM      4  C   UNL     1      -8.370  -1.036 -31.534  1.00  0.00     0.012 A 
ATOM      5  C   UNL     1      -9.680  -1.353 -31.913  1.00  0.00     0.051 A 
ATOM      6  C   UNL     1     -10.510  -0.344 -32.383  1.00  0.00     0.157 A 
ATOM      7  C   UNL     1      -8.744   1.286 -32.104  1.00  0.00     0.058 A 
ATOM      8  C   UNL     1     -10.041   0.962 -32.478  1.00  0.00     0.157 A 
BRANCH   6   9
ATOM      9  O   UNL     1     -11.798  -0.589 -32.769  1.00  0.00    -0.504 OA
ATOM     10  H   UNL     1     -12.351  -0.627 -31.971  1.00  0.00     0.293 HD
ENDBRANCH   6   9
BRANCH   8  11
ATOM     11  O   UNL     1     -10.863   1.946 -32.951  1.00  0.00    -0.504 OA
ATOM     12  H   UNL     1     -10.273   2.716 -33.076  1.00  0.00     0.293 HD
ENDBRANCH   8  11
ENDBRANCH   1   3
BRANCH   2  13
ATOM     13  C   UNL     1      -4.313  -0.067 -30.241  1.00  0.00    -0.018 A 
ATOM     14  C   UNL     1      -4.033   0.241 -28.902  1.00  0.00     0.054 A 
ATOM     15  C   UNL     1      -3.252  -0.158 -31.152  1.00  0.00     0.054 A 
ATOM     16  C   UNL     1      -2.719   0.478 -28.503  1.00  0.00     0.119 A 
ATOM     17  C   UNL     1      -1.946   0.082 -30.732  1.00  0.00     0.119 A 
ATOM     18  C   UNL     1      -1.668   0.403 -29.409  1.00  0.00     0.092 A 
BRANCH  16  19
ATOM     19  O   UNL     1      -2.415   0.789 -27.209  1.00  0.00    -0.508 OA
ATOM     20  H   UNL     1      -2.534  -0.005 -26.661  1.00  0.00     0.293 HD
ENDBRANCH  16  19
BRANCH  17  21
ATOM     21  O   UNL     1      -0.951  -0.014 -31.662  1.00  0.00    -0.508 OA
ATOM     22  H   UNL     1      -1.091  -0.824 -32.179  1.00  0.00     0.293 HD
ENDBRANCH  17  21
ENDBRANCH   2  13
TORSDOF 6
ENDMDL
MODEL 2
REMARK VINA RESULT:      -7.5      0.124      1.951
REMARK SMILES Oc1cc(O)cc(/C=C/c2ccc(O)c(O)c2)c1
REMARK SMILES IDX 9 1 8 2 10 3 11 4 12 5 13 6 17 7 15 8 14 9 16 11 7 13 6 14
REMARK SMILES IDX 18 15 4 16 2 17 3 18 5 19 1 21
REMARK H PARENT 14 10 16 12 5 20 1 22
ROOT
ATOM      1  C   UNL     1      -6.492   0.428 -31.252  1.00  0.00     0.009 C 
ATOM      2  C   UNL     1      -5.794  -0.360 -30.419  1.00  0.00     0.009 C 
ENDROOT
BRANCH   1   3
ATOM      3  C   UNL     1      -7.895   0.184 -31.619  1.00  0.00    -0.022 A 
ATOM      4  C   UNL     1      -8.405  -1.121 -31.511  1.00  0.00     0.012 A 
ATOM      5  C   UNL     1      -9.726  -1.410 -31.874  1.00  0.00     0.051 A 
ATOM      6  C   UNL     1     -10.532  -0.389 -32.357  1.00  0.00     0.157 A 
ATOM      7  C   UNL     1      -8.721   1.197 -32.124  1.00  0.00     0.058 A 
ATOM      8  C   UNL     1     -10.029   0.902 -32.482  1.00  0.00     0.157 A 
BRANCH   6   9
ATOM      9  O   UNL     1     -11.830  -0.606 -32.729  1.00  0.00    -0.504 OA
ATOM     10  H   UNL     1     -11.826  -1.155 -33.531  1.00  0.00     0.293 HD
ENDBRANCH   6   9
BRANCH   8  11
ATOM     11  O   UNL     1     -10.827   1.899 -32.969  1.00  0.00    -0.504 OA
ATOM     12  H   UNL     1     -11.724   1.666 -32.656  1.00  0.00     0.293 HD
ENDBRANCH   8  11
ENDBRANCH   1   3
BRANCH   2  13
ATOM     13  C   UNL     1      -4.392  -0.116 -30.046  1.00  0.00    -0.018 A 
ATOM     14  C   UNL     1      -3.405  -0.192 -31.038  1.00  0.00     0.054 A 
ATOM     15  C   UNL     1      -4.018   0.241 -28.743  1.00  0.00     0.054 A 
ATOM     16  C   UNL     1      -2.073   0.060 -30.715  1.00  0.00     0.119 A 
ATOM     17  C   UNL     1      -2.681   0.490 -28.442  1.00  0.00     0.119 A 
ATOM     18  C   UNL     1      -1.699   0.399 -29.420  1.00  0.00     0.092 A 
BRANCH  16  19
ATOM     19  O   UNL     1      -1.088  -0.016 -31.657  1.00  0.00    -0.508 OA
ATOM     20  H   UNL     1      -1.314  -0.718 -32.290  1.00  0.00     0.293 HD
ENDBRANCH  16  19
BRANCH  17  21
ATOM     21  O   UNL     1      -2.372   0.828 -27.156  1.00  0.00    -0.508 OA
ATOM     22  H   UNL     1      -2.891   0.267 -26.557  1.00  0.00     0.293 HD
ENDBRANCH  17  21
ENDBRANCH   2  13
TORSDOF 6
ENDMDL
MODEL 3
REMARK VINA RESULT:      -7.5      3.904      7.725
REMARK SMILES Oc1cc(O)cc(/C=C/c2ccc(O)c(O)c2)c1
REMARK SMILES IDX 9 1 8 2 10 3 11 4 12 5 13 6 17 7 15 8 14 9 16 11 7 13 6 14
REMARK SMILES IDX 18 15 4 16 2 17 3 18 5 19 1 21
REMARK H PARENT 14 10 16 12 5 20 1 22
ROOT
ATOM      1  C   UNL     1      -6.740  -2.609 -28.866  1.00  0.00     0.009 C 
ATOM      2  C   UNL     1      -7.599  -3.187 -29.720  1.00  0.00     0.009 C 
ENDROOT
BRANCH   1   3
ATOM      3  C   UNL     1      -5.562  -1.840 -29.292  1.00  0.00    -0.022 A 
ATOM      4  C   UNL     1      -4.366  -1.976 -28.565  1.00  0.00     0.012 A 
ATOM      5  C   UNL     1      -3.224  -1.245 -28.914  1.00  0.00     0.051 A 
ATOM      6  C   UNL     1      -3.286  -0.368 -29.988  1.00  0.00     0.157 A 
ATOM      7  C   UNL     1      -5.608  -0.936 -30.362  1.00  0.00     0.058 A 
ATOM      8  C   UNL     1      -4.471  -0.215 -30.702  1.00  0.00     0.157 A 
BRANCH   6   9
ATOM      9  O   UNL     1      -2.207   0.375 -30.378  1.00  0.00    -0.504 OA
ATOM     10  H   UNL     1      -1.904   0.893 -29.613  1.00  0.00     0.293 HD
ENDBRANCH   6   9
BRANCH   8  11
ATOM     11  O   UNL     1      -4.525   0.659 -31.750  1.00  0.00    -0.504 OA
ATOM     12  H   UNL     1      -5.466   0.923 -31.799  1.00  0.00     0.293 HD
ENDBRANCH   8  11
ENDBRANCH   1   3
BRANCH   2  13
ATOM     13  C   UNL     1      -8.781  -3.954 -29.298  1.00  0.00    -0.018 A 
ATOM     14  C   UNL     1      -9.188  -3.885 -27.958  1.00  0.00     0.054 A 
ATOM     15  C   UNL     1      -9.545  -4.706 -30.201  1.00  0.00     0.054 A 
ATOM     16  C   UNL     1     -10.320  -4.582 -27.538  1.00  0.00     0.119 A 
ATOM     17  C   UNL     1     -10.673  -5.393 -29.761  1.00  0.00     0.119 A 
ATOM     18  C   UNL     1     -11.069  -5.341 -28.430  1.00  0.00     0.092 A 
BRANCH  16  19
ATOM     19  O   UNL     1     -10.736  -4.544 -26.238  1.00  0.00    -0.508 OA
ATOM     20  H   UNL     1     -11.415  -5.226 -26.108  1.00  0.00     0.293 HD
ENDBRANCH  16  19
BRANCH  17  21
ATOM     21  O   UNL     1     -11.376  -6.116 -30.681  1.00  0.00    -0.508 OA
ATOM     22  H   UNL     1     -12.291  -5.789 -30.694  1.00  0.00     0.293 HD
ENDBRANCH  17  21
ENDBRANCH   2  13
TORSDOF 6
ENDMDL
MODEL 4
REMARK VINA RESULT:      -7.4      3.913      7.951
REMARK SMILES Oc1cc(O)cc(/C=C/c2ccc(O)c(O)c2)c1
REMARK SMILES IDX 9 1 8 2 10 3 11 4 12 5 13 6 17 7 15 8 14 9 16 11 7 13 6 14
REMARK SMILES IDX 18 15 4 16 2 17 3 18 5 19 1 21
REMARK H PARENT 14 10 16 12 5 20 1 22
ROOT
ATOM      1  C   UNL     1      -6.805  -2.513 -28.853  1.00  0.00     0.009 C 
ATOM      2  C   UNL     1      -7.592  -3.219 -29.680  1.00  0.00     0.009 C 
ENDROOT
BRANCH   1   3
ATOM      3  C   UNL     1      -5.600  -1.795 -29.291  1.00  0.00    -0.022 A 
ATOM      4  C   UNL     1      -4.404  -1.981 -28.575  1.00  0.00     0.012 A 
ATOM      5  C   UNL     1      -3.235  -1.300 -28.936  1.00  0.00     0.051 A 
ATOM      6  C   UNL     1      -3.270  -0.422 -30.010  1.00  0.00     0.157 A 
ATOM      7  C   UNL     1      -5.617  -0.892 -30.363  1.00  0.00     0.058 A 
ATOM      8  C   UNL     1      -4.454  -0.220 -30.714  1.00  0.00     0.157 A 
BRANCH   6   9
ATOM      9  O   UNL     1      -2.164   0.274 -30.412  1.00  0.00    -0.504 OA
ATOM     10  H   UNL     1      -1.997   0.977 -29.762  1.00  0.00     0.293 HD
ENDBRANCH   6   9
BRANCH   8  11
ATOM     11  O   UNL     1      -4.481   0.654 -31.764  1.00  0.00    -0.504 OA
ATOM     12  H   UNL     1      -4.684   0.095 -32.540  1.00  0.00     0.293 HD
ENDBRANCH   8  11
ENDBRANCH   1   3
BRANCH   2  13
ATOM     13  C   UNL     1      -8.801  -3.935 -29.246  1.00  0.00    -0.018 A 
ATOM     14  C   UNL     1      -9.521  -4.681 -30.189  1.00  0.00     0.054 A 
ATOM     15  C   UNL     1      -9.228  -3.939 -27.910  1.00  0.00     0.054 A 
ATOM     16  C   UNL     1     -10.656  -5.389 -29.798  1.00  0.00     0.119 A 
ATOM     17  C   UNL     1     -10.364  -4.654 -27.540  1.00  0.00     0.119 A 
ATOM     18  C   UNL     1     -11.088  -5.381 -28.477  1.00  0.00     0.092 A 
BRANCH  16  19
ATOM     19  O   UNL     1     -11.384  -6.116 -30.695  1.00  0.00    -0.508 OA
ATOM     20  H   UNL     1     -11.534  -5.574 -31.487  1.00  0.00     0.293 HD
ENDBRANCH  16  19
BRANCH  17  21
ATOM     21  O   UNL     1     -10.737  -4.619 -26.228  1.00  0.00    -0.508 OA
ATOM     22  H   UNL     1      -9.943  -4.488 -25.685  1.00  0.00     0.293 HD
ENDBRANCH  17  21
ENDBRANCH   2  13
TORSDOF 6
ENDMDL
MODEL 5
REMARK VINA RESULT:      -7.3      3.361      7.563
REMARK SMILES Oc1cc(O)cc(/C=C/c2ccc(O)c(O)c2)c1
REMARK SMILES IDX 9 1 8 2 10 3 11 4 12 5 13 6 17 7 15 8 14 9 16 11 7 13 6 14
REMARK SMILES IDX 18 15 4 16 2 17 3 18 5 19 1 21
REMARK H PARENT 14 10 16 12 5 20 1 22
ROOT
ATOM      1  C   UNL     1      -6.242   2.730 -30.258  1.00  0.00     0.009 C 
ATOM      2  C   UNL     1      -6.382   2.088 -31.429  1.00  0.00     0.009 C 
ENDROOT
BRANCH   1   3
ATOM      3  C   UNL     1      -5.063   3.534 -29.906  1.00  0.00    -0.022 A 
ATOM      4  C   UNL     1      -4.368   3.234 -28.722  1.00  0.00     0.012 A 
ATOM      5  C   UNL     1      -3.255   3.987 -28.329  1.00  0.00     0.051 A 
ATOM      6  C   UNL     1      -2.847   5.051 -29.121  1.00  0.00     0.157 A 
ATOM      7  C   UNL     1      -4.644   4.623 -30.683  1.00  0.00     0.058 A 
ATOM      8  C   UNL     1      -3.539   5.365 -30.286  1.00  0.00     0.157 A 
BRANCH   6   9
ATOM      9  O   UNL     1      -1.769   5.825 -28.792  1.00  0.00    -0.504 OA
ATOM     10  H   UNL     1      -2.016   6.379 -28.032  1.00  0.00     0.293 HD
ENDBRANCH   6   9
BRANCH   8  11
ATOM     11  O   UNL     1      -3.136   6.421 -31.053  1.00  0.00    -0.504 OA
ATOM     12  H   UNL     1      -3.966   6.881 -31.290  1.00  0.00     0.293 HD
ENDBRANCH   8  11
ENDBRANCH   1   3
BRANCH   2  13
ATOM     13  C   UNL     1      -7.562   1.287 -31.786  1.00  0.00    -0.018 A 
ATOM     14  C   UNL     1      -7.506  -0.105 -31.631  1.00  0.00     0.054 A 
ATOM     15  C   UNL     1      -8.759   1.873 -32.224  1.00  0.00     0.054 A 
ATOM     16  C   UNL     1      -8.620  -0.885 -31.939  1.00  0.00     0.119 A 
ATOM     17  C   UNL     1      -9.860   1.075 -32.524  1.00  0.00     0.119 A 
ATOM     18  C   UNL     1      -9.801  -0.306 -32.388  1.00  0.00     0.092 A 
BRANCH  16  19
ATOM     19  O   UNL     1      -8.593  -2.244 -31.808  1.00  0.00    -0.508 OA
ATOM     20  H   UNL     1      -7.761  -2.499 -31.375  1.00  0.00     0.293 HD
ENDBRANCH  16  19
BRANCH  17  21
ATOM     21  O   UNL     1     -10.996   1.697 -32.953  1.00  0.00    -0.508 OA
ATOM     22  H   UNL     1     -11.500   1.073 -33.502  1.00  0.00     0.293 HD
ENDBRANCH  17  21
ENDBRANCH   2  13
TORSDOF 6
ENDMDL
MODEL 6
REMARK VINA RESULT:      -7.3      3.910      4.998
REMARK SMILES Oc1cc(O)cc(/C=C/c2ccc(O)c(O)c2)c1
REMARK SMILES IDX 9 1 8 2 10 3 11 4 12 5 13 6 17 7 15 8 14 9 16 11 7 13 6 14
REMARK SMILES IDX 18 15 4 16 2 17 3 18 5 19 1 21
REMARK H PARENT 14 10 16 12 5 20 1 22
ROOT
ATOM      1  C   UNL     1      -8.012  -2.862 -29.903  1.00  0.00     0.009 C 
ATOM      2  C   UNL     1      -6.929  -2.532 -29.182  1.00  0.00     0.009 C 
ENDROOT
BRANCH   1   3
ATOM      3  C   UNL     1      -9.064  -3.770 -29.424  1.00  0.00    -0.022 A 
ATOM      4  C   UNL     1      -9.313  -3.847 -28.042  1.00  0.00     0.012 A 
ATOM      5  C   UNL     1     -10.286  -4.715 -27.533  1.00  0.00     0.051 A 
ATOM      6  C   UNL     1     -11.002  -5.515 -28.411  1.00  0.00     0.157 A 
ATOM      7  C   UNL     1      -9.788  -4.599 -30.292  1.00  0.00     0.058 A 
ATOM      8  C   UNL     1     -10.750  -5.457 -29.779  1.00  0.00     0.157 A 
BRANCH   6   9
ATOM      9  O   UNL     1     -11.965  -6.384 -27.977  1.00  0.00    -0.504 OA
ATOM     10  H   UNL     1     -12.816  -6.107 -28.357  1.00  0.00     0.293 HD
ENDBRANCH   6   9
BRANCH   8  11
ATOM     11  O   UNL     1     -11.454  -6.257 -30.634  1.00  0.00    -0.504 OA
ATOM     12  H   UNL     1     -12.346  -5.858 -30.663  1.00  0.00     0.293 HD
ENDBRANCH   8  11
ENDBRANCH   1   3
BRANCH   2  13
ATOM     13  C   UNL     1      -5.877  -1.621 -29.657  1.00  0.00    -0.018 A 
ATOM     14  C   UNL     1      -6.175  -0.724 -30.692  1.00  0.00     0.054 A 
ATOM     15  C   UNL     1      -4.603  -1.583 -29.073  1.00  0.00     0.054 A 
ATOM     16  C   UNL     1      -5.202   0.167 -31.143  1.00  0.00     0.119 A 
ATOM     17  C   UNL     1      -3.646  -0.684 -29.537  1.00  0.00     0.119 A 
ATOM     18  C   UNL     1      -3.934   0.194 -30.574  1.00  0.00     0.092 A 
BRANCH  16  19
ATOM     19  O   UNL     1      -5.459   1.045 -32.156  1.00  0.00    -0.508 OA
ATOM     20  H   UNL     1      -6.313   0.816 -32.559  1.00  0.00     0.293 HD
ENDBRANCH  16  19
BRANCH  17  21
ATOM     21  O   UNL     1      -2.421  -0.693 -28.937  1.00  0.00    -0.508 OA
ATOM     22  H   UNL     1      -2.548  -0.621 -27.977  1.00  0.00     0.293 HD
ENDBRANCH  17  21
ENDBRANCH   2  13
TORSDOF 6
ENDMDL
MODEL 7
REMARK VINA RESULT:      -7.2      3.367      7.537
REMARK SMILES Oc1cc(O)cc(/C=C/c2ccc(O)c(O)c2)c1
REMARK SMILES IDX 9 1 8 2 10 3 11 4 12 5 13 6 17 7 15 8 14 9 16 11 7 13 6 14
REMARK SMILES IDX 18 15 4 16 2 17 3 18 5 19 1 21
REMARK H PARENT 14 10 16 12 5 20 1 22
ROOT
ATOM      1  C   UNL     1      -6.303   2.829 -30.275  1.00  0.00     0.009 C 
ATOM      2  C   UNL     1      -6.330   1.909 -31.252  1.00  0.00     0.009 C 
ENDROOT
BRANCH   1   3
ATOM      3  C   UNL     1      -5.106   3.604 -29.918  1.00  0.00    -0.022 A 
ATOM      4  C   UNL     1      -4.430   3.293 -28.726  1.00  0.00     0.012 A 
ATOM      5  C   UNL     1      -3.300   4.019 -28.328  1.00  0.00     0.051 A 
ATOM      6  C   UNL     1      -2.857   5.066 -29.123  1.00  0.00     0.157 A 
ATOM      7  C   UNL     1      -4.651   4.675 -30.698  1.00  0.00     0.058 A 
ATOM      8  C   UNL     1      -3.531   5.391 -30.297  1.00  0.00     0.157 A 
BRANCH   6   9
ATOM      9  O   UNL     1      -1.762   5.814 -28.790  1.00  0.00    -0.504 OA
ATOM     10  H   UNL     1      -1.582   6.428 -29.522  1.00  0.00     0.293 HD
ENDBRANCH   6   9
BRANCH   8  11
ATOM     11  O   UNL     1      -3.093   6.430 -31.068  1.00  0.00    -0.504 OA
ATOM     12  H   UNL     1      -3.307   7.228 -30.545  1.00  0.00     0.293 HD
ENDBRANCH   8  11
ENDBRANCH   1   3
BRANCH   2  13
ATOM     13  C   UNL     1      -7.527   1.135 -31.615  1.00  0.00    -0.018 A 
ATOM     14  C   UNL     1      -8.658   1.819 -32.082  1.00  0.00     0.054 A 
ATOM     15  C   UNL     1      -7.555  -0.266 -31.561  1.00  0.00     0.054 A 
ATOM     16  C   UNL     1      -9.796   1.106 -32.456  1.00  0.00     0.119 A 
ATOM     17  C   UNL     1      -8.702  -0.958 -31.941  1.00  0.00     0.119 A 
ATOM     18  C   UNL     1      -9.830  -0.282 -32.388  1.00  0.00     0.092 A 
BRANCH  16  19
ATOM     19  O   UNL     1     -10.917   1.743 -32.905  1.00  0.00    -0.508 OA
ATOM     20  H   UNL     1     -11.017   1.566 -33.855  1.00  0.00     0.293 HD
ENDBRANCH  16  19
BRANCH  17  21
ATOM     21  O   UNL     1      -8.677  -2.320 -31.862  1.00  0.00    -0.508 OA
ATOM     22  H   UNL     1      -7.754  -2.615 -31.924  1.00  0.00     0.293 HD
ENDBRANCH  17  21
ENDBRANCH   2  13
TORSDOF 6
ENDMDL
MODEL 8
REMARK VINA RESULT:      -7.2      3.839      4.695
REMARK SMILES Oc1cc(O)cc(/C=C/c2ccc(O)c(O)c2)c1
REMARK SMILES IDX 9 1 8 2 10 3 11 4 12 5 13 6 17 7 15 8 14 9 16 11 7 13 6 14
REMARK SMILES IDX 18 15 4 16 2 17 3 18 5 19 1 21
REMARK H PARENT 14 10 16 12 5 20 1 22
ROOT
ATOM      1  C   UNL     1      -7.765  -2.886 -29.454  1.00  0.00     0.009 C 
ATOM      2  C   UNL     1      -6.883  -2.416 -28.558  1.00  0.00     0.009 C 
ENDROOT
BRANCH   1   3
ATOM      3  C   UNL     1      -8.896  -3.758 -29.103  1.00  0.00    -0.022 A 
ATOM      4  C   UNL     1      -9.287  -3.850 -27.756  1.00  0.00     0.012 A 
ATOM      5  C   UNL     1     -10.340  -4.686 -27.367  1.00  0.00     0.051 A 
ATOM      6  C   UNL     1     -10.994  -5.439 -28.331  1.00  0.00     0.157 A 
ATOM      7  C   UNL     1      -9.560  -4.539 -30.058  1.00  0.00     0.058 A 
ATOM      8  C   UNL     1     -10.603  -5.366 -29.664  1.00  0.00     0.157 A 
BRANCH   6   9
ATOM      9  O   UNL     1     -12.030  -6.275 -28.016  1.00  0.00    -0.504 OA
ATOM     10  H   UNL     1     -11.701  -7.190 -28.051  1.00  0.00     0.293 HD
ENDBRANCH   6   9
BRANCH   8  11
ATOM     11  O   UNL     1     -11.247  -6.120 -30.605  1.00  0.00    -0.504 OA
ATOM     12  H   UNL     1     -10.550  -6.701 -30.969  1.00  0.00     0.293 HD
ENDBRANCH   8  11
ENDBRANCH   1   3
BRANCH   2  13
ATOM     13  C   UNL     1      -5.753  -1.541 -28.905  1.00  0.00    -0.018 A 
ATOM     14  C   UNL     1      -5.360  -0.551 -27.993  1.00  0.00     0.054 A 
ATOM     15  C   UNL     1      -5.023  -1.698 -30.091  1.00  0.00     0.054 A 
ATOM     16  C   UNL     1      -4.276   0.275 -28.286  1.00  0.00     0.119 A 
ATOM     17  C   UNL     1      -3.943  -0.863 -30.364  1.00  0.00     0.119 A 
ATOM     18  C   UNL     1      -3.562   0.129 -29.470  1.00  0.00     0.092 A 
BRANCH  16  19
ATOM     19  O   UNL     1      -3.875   1.253 -27.423  1.00  0.00    -0.508 OA
ATOM     20  H   UNL     1      -3.019   0.999 -27.039  1.00  0.00     0.293 HD
ENDBRANCH  16  19
BRANCH  17  21
ATOM     21  O   UNL     1      -3.271  -1.055 -31.537  1.00  0.00    -0.508 OA
ATOM     22  H   UNL     1      -3.892  -0.922 -32.272  1.00  0.00     0.293 HD
ENDBRANCH  17  21
ENDBRANCH   2  13
TORSDOF 6
ENDMDL
MODEL 9
REMARK VINA RESULT:      -7.2      3.720      4.621
REMARK SMILES Oc1cc(O)cc(/C=C/c2ccc(O)c(O)c2)c1
REMARK SMILES IDX 9 1 8 2 10 3 11 4 12 5 13 6 17 7 15 8 14 9 16 11 7 13 6 14
REMARK SMILES IDX 18 15 4 16 2 17 3 18 5 19 1 21
REMARK H PARENT 14 10 16 12 5 20 1 22
ROOT
ATOM      1  C   UNL     1      -6.809  -2.572 -29.525  1.00  0.00     0.009 C 
ATOM      2  C   UNL     1      -5.950  -2.110 -28.603  1.00  0.00     0.009 C 
ENDROOT
BRANCH   1   3
ATOM      3  C   UNL     1      -8.045  -3.297 -29.196  1.00  0.00    -0.022 A 
ATOM      4  C   UNL     1      -8.727  -2.970 -28.011  1.00  0.00     0.012 A 
ATOM      5  C   UNL     1      -9.893  -3.650 -27.640  1.00  0.00     0.051 A 
ATOM      6  C   UNL     1     -10.369  -4.667 -28.454  1.00  0.00     0.157 A 
ATOM      7  C   UNL     1      -8.534  -4.339 -29.996  1.00  0.00     0.058 A 
ATOM      8  C   UNL     1      -9.690  -5.009 -29.620  1.00  0.00     0.157 A 
BRANCH   6   9
ATOM      9  O   UNL     1     -11.501  -5.370 -28.147  1.00  0.00    -0.504 OA
ATOM     10  H   UNL     1     -12.199  -5.104 -28.769  1.00  0.00     0.293 HD
ENDBRANCH   6   9
BRANCH   8  11
ATOM     11  O   UNL     1     -10.161  -6.019 -30.410  1.00  0.00    -0.504 OA
ATOM     12  H   UNL     1     -11.133  -5.910 -30.391  1.00  0.00     0.293 HD
ENDBRANCH   8  11
ENDBRANCH   1   3
BRANCH   2  13
ATOM     13  C   UNL     1      -4.716  -1.380 -28.928  1.00  0.00    -0.018 A 
ATOM     14  C   UNL     1      -4.264  -1.371 -30.255  1.00  0.00     0.054 A 
ATOM     15  C   UNL     1      -4.006  -0.648 -27.965  1.00  0.00     0.054 A 
ATOM     16  C   UNL     1      -3.111  -0.665 -30.593  1.00  0.00     0.119 A 
ATOM     17  C   UNL     1      -2.857   0.052 -28.325  1.00  0.00     0.119 A 
ATOM     18  C   UNL     1      -2.398   0.047 -29.636  1.00  0.00     0.092 A 
BRANCH  16  19
ATOM     19  O   UNL     1      -2.641  -0.647 -31.875  1.00  0.00    -0.508 OA
ATOM     20  H   UNL     1      -1.894  -0.027 -31.924  1.00  0.00     0.293 HD
ENDBRANCH  16  19
BRANCH  17  21
ATOM     21  O   UNL     1      -2.201   0.742 -27.348  1.00  0.00    -0.508 OA
ATOM     22  H   UNL     1      -2.763   1.482 -27.064  1.00  0.00     0.293 HD
ENDBRANCH  17  21
ENDBRANCH   2  13
TORSDOF 6
ENDMDL
MODEL 10
REMARK VINA RESULT:      -7.2      5.364      8.301
REMARK SMILES Oc1cc(O)cc(/C=C/c2ccc(O)c(O)c2)c1
REMARK SMILES IDX 9 1 8 2 10 3 11 4 12 5 13 6 17 7 15 8 14 9 16 11 7 13 6 14
REMARK SMILES IDX 18 15 4 16 2 17 3 18 5 19 1 21
REMARK H PARENT 14 10 16 12 5 20 1 22
ROOT
ATOM      1  C   UNL     1      -5.313  -1.233 -25.982  1.00  0.00     0.009 C 
ATOM      2  C   UNL     1      -5.892  -0.334 -25.171  1.00  0.00     0.009 C 
ENDROOT
BRANCH   1   3
ATOM      3  C   UNL     1      -4.391  -0.874 -27.069  1.00  0.00    -0.022 A 
ATOM      4  C   UNL     1      -3.571   0.257 -26.915  1.00  0.00     0.012 A 
ATOM      5  C   UNL     1      -2.695   0.657 -27.931  1.00  0.00     0.051 A 
ATOM      6  C   UNL     1      -2.652  -0.075 -29.110  1.00  0.00     0.157 A 
ATOM      7  C   UNL     1      -4.343  -1.589 -28.274  1.00  0.00     0.058 A 
ATOM      8  C   UNL     1      -3.472  -1.186 -29.277  1.00  0.00     0.157 A 
BRANCH   6   9
ATOM      9  O   UNL     1      -1.819   0.263 -30.141  1.00  0.00    -0.504 OA
ATOM     10  H   UNL     1      -1.011  -0.272 -30.064  1.00  0.00     0.293 HD
ENDBRANCH   6   9
BRANCH   8  11
ATOM     11  O   UNL     1      -3.429  -1.894 -30.445  1.00  0.00    -0.504 OA
ATOM     12  H   UNL     1      -3.258  -1.219 -31.132  1.00  0.00     0.293 HD
ENDBRANCH   8  11
ENDBRANCH   1   3
BRANCH   2  13
ATOM     13  C   UNL     1      -6.812  -0.690 -24.080  1.00  0.00    -0.018 A 
ATOM     14  C   UNL     1      -7.810   0.223 -23.711  1.00  0.00     0.054 A 
ATOM     15  C   UNL     1      -6.757  -1.933 -23.433  1.00  0.00     0.054 A 
ATOM     16  C   UNL     1      -8.710  -0.102 -22.697  1.00  0.00     0.119 A 
ATOM     17  C   UNL     1      -7.667  -2.237 -22.423  1.00  0.00     0.119 A 
ATOM     18  C   UNL     1      -8.646  -1.328 -22.045  1.00  0.00     0.092 A 
BRANCH  16  19
ATOM     19  O   UNL     1      -9.686   0.770 -22.309  1.00  0.00    -0.508 OA
ATOM     20  H   UNL     1     -10.078   0.450 -21.479  1.00  0.00     0.293 HD
ENDBRANCH  16  19
BRANCH  17  21
ATOM     21  O   UNL     1      -7.565  -3.459 -21.823  1.00  0.00    -0.508 OA
ATOM     22  H   UNL     1      -7.491  -3.325 -20.864  1.00  0.00     0.293 HD
ENDBRANCH  17  21
ENDBRANCH   2  13
TORSDOF 6
ENDMDL
