MODEL 1
REMARK VINA RESULT:      -6.5      0.000      0.000
REMARK SMILES N#CC(=Cc1ccc(O)cc1)C(=O)O
REMARK SMILES IDX 4 1 3 2 2 3 1 4 5 5 6 6 7 7 8 8 11 9 10 10 9 11 12 13 13 14
REMARK SMILES IDX 14 15
REMARK H PARENT 9 12 14 16
ROOT
ATOM      1  C   UNL     1      -5.716   1.011 -31.998  1.00  0.00     0.035 C 
ATOM      2  C   UNL     1      -5.203   0.040 -31.218  1.00  0.00     0.137 C 
ATOM      3  C   UNL     1      -6.080  -1.004 -30.547  1.00  0.00     0.107 C 
ATOM      4  N   UNL     1      -6.809  -1.870 -29.990  1.00  0.00    -0.192 NA
ENDROOT
BRANCH   1   5
ATOM      5  C   UNL     1      -7.140   1.184 -32.295  1.00  0.00    -0.024 A 
ATOM      6  C   UNL     1      -7.689   0.740 -33.505  1.00  0.00     0.012 A 
ATOM      7  C   UNL     1      -9.050   0.914 -33.769  1.00  0.00     0.047 A 
ATOM      8  C   UNL     1      -9.856   1.539 -32.822  1.00  0.00     0.115 A 
ATOM      9  C   UNL     1      -7.962   1.820 -31.358  1.00  0.00     0.012 A 
ATOM     10  C   UNL     1      -9.323   1.995 -31.622  1.00  0.00     0.047 A 
BRANCH   8  11
ATOM     11  O   UNL     1     -11.188   1.729 -33.036  1.00  0.00    -0.508 OA
ATOM     12  H   UNL     1     -11.472   2.524 -32.556  1.00  0.00     0.293 HD
ENDBRANCH   8  11
ENDBRANCH   1   5
BRANCH   2  13
ATOM     13  C   UNL     1      -3.736   0.008 -31.003  1.00  0.00     0.346 C 
ATOM     14  O   UNL     1      -3.024  -0.896 -31.415  1.00  0.00    -0.246 OA
BRANCH  13  15
ATOM     15  O   UNL     1      -3.216   1.048 -30.315  1.00  0.00    -0.477 OA
ATOM     16  H   UNL     1      -3.441   1.962 -30.576  1.00  0.00     0.297 HD
ENDBRANCH  13  15
ENDBRANCH   2  13
TORSDOF 4
ENDMDL
MODEL 2
REMARK VINA RESULT:      -6.5      1.698      5.243
REMARK SMILES N#CC(=Cc1ccc(O)cc1)C(=O)O
REMARK SMILES IDX 4 1 3 2 2 3 1 4 5 5 6 6 7 7 8 8 11 9 10 10 9 11 12 13 13 14
REMARK SMILES IDX 14 15
REMARK H PARENT 9 12 14 16
ROOT
ATOM      1  C   UNL     1      -8.509   1.724 -32.079  1.00  0.00     0.035 C 
ATOM      2  C   UNL     1      -9.273   0.620 -32.183  1.00  0.00     0.137 C 
ATOM      3  C   UNL     1      -8.796  -0.738 -31.696  1.00  0.00     0.107 C 
ATOM      4  N   UNL     1      -8.400  -1.867 -31.294  1.00  0.00    -0.192 NA
ENDROOT
BRANCH   1   5
ATOM      5  C   UNL     1      -7.162   1.763 -31.504  1.00  0.00    -0.024 A 
ATOM      6  C   UNL     1      -6.048   1.331 -32.234  1.00  0.00     0.012 A 
ATOM      7  C   UNL     1      -4.771   1.377 -31.668  1.00  0.00     0.047 A 
ATOM      8  C   UNL     1      -4.616   1.850 -30.369  1.00  0.00     0.115 A 
ATOM      9  C   UNL     1      -6.990   2.227 -30.195  1.00  0.00     0.012 A 
ATOM     10  C   UNL     1      -5.714   2.272 -29.628  1.00  0.00     0.047 A 
BRANCH   8  11
ATOM     11  O   UNL     1      -3.391   1.914 -29.776  1.00  0.00    -0.508 OA
ATOM     12  H   UNL     1      -2.734   1.519 -30.373  1.00  0.00     0.293 HD
ENDBRANCH   8  11
ENDBRANCH   1   5
BRANCH   2  13
ATOM     13  C   UNL     1     -10.614   0.744 -32.804  1.00  0.00     0.346 C 
ATOM     14  O   UNL     1     -11.330  -0.220 -33.035  1.00  0.00    -0.246 OA
BRANCH  13  15
ATOM     15  O   UNL     1     -11.010   1.998 -33.109  1.00  0.00    -0.477 OA
ATOM     16  H   UNL     1     -11.607   2.478 -32.503  1.00  0.00     0.297 HD
ENDBRANCH  13  15
ENDBRANCH   2  13
TORSDOF 4
ENDMDL
MODEL 3
REMARK VINA RESULT:      -6.4      3.821      6.630
REMARK SMILES N#CC(=Cc1ccc(O)cc1)C(=O)O
REMARK SMILES IDX 4 1 3 2 2 3 1 4 5 5 6 6 7 7 8 8 11 9 10 10 9 11 12 13 13 14
REMARK SMILES IDX 14 15
REMARK H PARENT 9 12 14 16
ROOT
ATOM      1  C   UNL     1      -5.810  -2.460 -28.390  1.00  0.00     0.035 C 
ATOM      2  C   UNL     1      -6.671  -2.439 -29.425  1.00  0.00     0.137 C 
ATOM      3  C   UNL     1      -6.597  -1.382 -30.514  1.00  0.00     0.107 C 
ATOM      4  N   UNL     1      -6.536  -0.504 -31.418  1.00  0.00    -0.192 NA
ENDROOT
BRANCH   1   5
ATOM      5  C   UNL     1      -4.724  -1.500 -28.181  1.00  0.00    -0.024 A 
ATOM      6  C   UNL     1      -4.787  -0.541 -27.162  1.00  0.00     0.012 A 
ATOM      7  C   UNL     1      -3.740   0.366 -26.979  1.00  0.00     0.047 A 
ATOM      8  C   UNL     1      -2.634   0.313 -27.823  1.00  0.00     0.115 A 
ATOM      9  C   UNL     1      -3.609  -1.532 -29.027  1.00  0.00     0.012 A 
ATOM     10  C   UNL     1      -2.563  -0.625 -28.845  1.00  0.00     0.047 A 
BRANCH   8  11
ATOM     11  O   UNL     1      -1.589   1.176 -27.681  1.00  0.00    -0.508 OA
ATOM     12  H   UNL     1      -1.684   1.891 -28.332  1.00  0.00     0.293 HD
ENDBRANCH   8  11
ENDBRANCH   1   5
BRANCH   2  13
ATOM     13  C   UNL     1      -7.728  -3.478 -29.486  1.00  0.00     0.346 C 
ATOM     14  O   UNL     1      -8.264  -3.938 -28.488  1.00  0.00    -0.246 OA
BRANCH  13  15
ATOM     15  O   UNL     1      -8.074  -3.898 -30.722  1.00  0.00    -0.477 OA
ATOM     16  H   UNL     1      -7.400  -3.931 -31.428  1.00  0.00     0.297 HD
ENDBRANCH  13  15
ENDBRANCH   2  13
TORSDOF 4
ENDMDL
MODEL 4
REMARK VINA RESULT:      -6.3      1.394      1.625
REMARK SMILES N#CC(=Cc1ccc(O)cc1)C(=O)O
REMARK SMILES IDX 4 1 3 2 2 3 1 4 5 5 6 6 7 7 8 8 11 9 10 10 9 11 12 13 13 14
REMARK SMILES IDX 14 15
REMARK H PARENT 9 12 14 16
ROOT
ATOM      1  C   UNL     1      -6.499   2.028 -31.427  1.00  0.00     0.035 C 
ATOM      2  C   UNL     1      -5.539   1.325 -30.797  1.00  0.00     0.137 C 
ATOM      3  C   UNL     1      -5.632  -0.180 -30.608  1.00  0.00     0.107 C 
ATOM      4  N   UNL     1      -5.711  -1.429 -30.451  1.00  0.00    -0.192 NA
ENDROOT
BRANCH   1   5
ATOM      5  C   UNL     1      -7.721   1.455 -31.997  1.00  0.00    -0.024 A 
ATOM      6  C   UNL     1      -7.758   0.989 -33.317  1.00  0.00     0.012 A 
ATOM      7  C   UNL     1      -8.934   0.445 -33.842  1.00  0.00     0.047 A 
ATOM      8  C   UNL     1     -10.071   0.376 -33.043  1.00  0.00     0.115 A 
ATOM      9  C   UNL     1      -8.877   1.387 -31.211  1.00  0.00     0.012 A 
ATOM     10  C   UNL     1     -10.052   0.845 -31.735  1.00  0.00     0.047 A 
BRANCH   8  11
ATOM     11  O   UNL     1     -11.239  -0.148 -33.512  1.00  0.00    -0.508 OA
ATOM     12  H   UNL     1     -11.579   0.429 -34.216  1.00  0.00     0.293 HD
ENDBRANCH   8  11
ENDBRANCH   1   5
BRANCH   2  13
ATOM     13  C   UNL     1      -4.364   2.057 -30.262  1.00  0.00     0.346 C 
ATOM     14  O   UNL     1      -3.587   1.566 -29.455  1.00  0.00    -0.246 OA
BRANCH  13  15
ATOM     15  O   UNL     1      -4.194   3.316 -30.719  1.00  0.00    -0.477 OA
ATOM     16  H   UNL     1      -4.441   3.535 -31.638  1.00  0.00     0.297 HD
ENDBRANCH  13  15
ENDBRANCH   2  13
TORSDOF 4
ENDMDL
MODEL 5
REMARK VINA RESULT:      -6.2      5.368      7.210
REMARK SMILES N#CC(=Cc1ccc(O)cc1)C(=O)O
REMARK SMILES IDX 4 1 3 2 2 3 1 4 5 5 6 6 7 7 8 8 11 9 10 10 9 11 12 13 13 14
REMARK SMILES IDX 14 15
REMARK H PARENT 9 12 14 16
ROOT
ATOM      1  C   UNL     1      -4.943  -0.957 -25.815  1.00  0.00     0.035 C 
ATOM      2  C   UNL     1      -6.187  -0.480 -25.620  1.00  0.00     0.137 C 
ATOM      3  C   UNL     1      -6.865   0.440 -26.621  1.00  0.00     0.107 C 
ATOM      4  N   UNL     1      -7.428   1.204 -27.452  1.00  0.00    -0.192 NA
ENDROOT
BRANCH   1   5
ATOM      5  C   UNL     1      -4.104  -0.662 -26.980  1.00  0.00    -0.024 A 
ATOM      6  C   UNL     1      -4.046  -1.537 -28.072  1.00  0.00     0.012 A 
ATOM      7  C   UNL     1      -3.240  -1.237 -29.174  1.00  0.00     0.047 A 
ATOM      8  C   UNL     1      -2.491  -0.065 -29.175  1.00  0.00     0.115 A 
ATOM      9  C   UNL     1      -3.336   0.507 -26.992  1.00  0.00     0.012 A 
ATOM     10  C   UNL     1      -2.530   0.807 -28.093  1.00  0.00     0.047 A 
BRANCH   8  11
ATOM     11  O   UNL     1      -1.693   0.268 -30.228  1.00  0.00    -0.508 OA
ATOM     12  H   UNL     1      -2.254   0.554 -30.968  1.00  0.00     0.293 HD
ENDBRANCH   8  11
ENDBRANCH   1   5
BRANCH   2  13
ATOM     13  C   UNL     1      -6.903  -0.862 -24.378  1.00  0.00     0.346 C 
ATOM     14  O   UNL     1      -7.785  -0.175 -23.882  1.00  0.00    -0.246 OA
BRANCH  13  15
ATOM     15  O   UNL     1      -6.523  -2.027 -23.811  1.00  0.00    -0.477 OA
ATOM     16  H   UNL     1      -6.343  -2.063 -22.852  1.00  0.00     0.297 HD
ENDBRANCH  13  15
ENDBRANCH   2  13
TORSDOF 4
ENDMDL
MODEL 6
REMARK VINA RESULT:      -6.2     19.539     21.422
REMARK SMILES N#CC(=Cc1ccc(O)cc1)C(=O)O
REMARK SMILES IDX 4 1 3 2 2 3 1 4 5 5 6 6 7 7 8 8 11 9 10 10 9 11 12 13 13 14
REMARK SMILES IDX 14 15
REMARK H PARENT 9 12 14 16
ROOT
ATOM      1  C   UNL     1       7.930   1.154 -16.696  1.00  0.00     0.035 C 
ATOM      2  C   UNL     1       8.981   1.221 -15.856  1.00  0.00     0.137 C 
ATOM      3  C   UNL     1       9.799  -0.006 -15.488  1.00  0.00     0.107 C 
ATOM      4  N   UNL     1      10.477  -1.024 -15.182  1.00  0.00    -0.192 NA
ENDROOT
BRANCH   1   5
ATOM      5  C   UNL     1       7.451  -0.068 -17.346  1.00  0.00    -0.024 A 
ATOM      6  C   UNL     1       6.567  -0.938 -16.696  1.00  0.00     0.012 A 
ATOM      7  C   UNL     1       6.121  -2.099 -17.334  1.00  0.00     0.047 A 
ATOM      8  C   UNL     1       6.568  -2.388 -18.619  1.00  0.00     0.115 A 
ATOM      9  C   UNL     1       7.900  -0.379 -18.635  1.00  0.00     0.012 A 
ATOM     10  C   UNL     1       7.455  -1.540 -19.272  1.00  0.00     0.047 A 
BRANCH   8  11
ATOM     11  O   UNL     1       6.159  -3.507 -19.280  1.00  0.00    -0.508 OA
ATOM     12  H   UNL     1       6.131  -4.248 -18.652  1.00  0.00     0.293 HD
ENDBRANCH   8  11
ENDBRANCH   1   5
BRANCH   2  13
ATOM     13  C   UNL     1       9.332   2.537 -15.268  1.00  0.00     0.346 C 
ATOM     14  O   UNL     1      10.463   2.818 -14.899  1.00  0.00    -0.246 OA
BRANCH  13  15
ATOM     15  O   UNL     1       8.320   3.423 -15.156  1.00  0.00    -0.477 OA
ATOM     16  H   UNL     1       7.498   3.286 -15.665  1.00  0.00     0.297 HD
ENDBRANCH  13  15
ENDBRANCH   2  13
TORSDOF 4
ENDMDL
MODEL 7
REMARK VINA RESULT:      -6.1      4.685      6.399
REMARK SMILES N#CC(=Cc1ccc(O)cc1)C(=O)O
REMARK SMILES IDX 4 1 3 2 2 3 1 4 5 5 6 6 7 7 8 8 11 9 10 10 9 11 12 13 13 14
REMARK SMILES IDX 14 15
REMARK H PARENT 9 12 14 16
ROOT
ATOM      1  C   UNL     1      -4.187  -0.170 -26.530  1.00  0.00     0.035 C 
ATOM      2  C   UNL     1      -5.344  -0.545 -25.953  1.00  0.00     0.137 C 
ATOM      3  C   UNL     1      -6.473  -1.180 -26.748  1.00  0.00     0.107 C 
ATOM      4  N   UNL     1      -7.411  -1.706 -27.408  1.00  0.00    -0.192 NA
ENDROOT
BRANCH   1   5
ATOM      5  C   UNL     1      -3.871  -0.318 -27.953  1.00  0.00    -0.024 A 
ATOM      6  C   UNL     1      -3.850   0.788 -28.811  1.00  0.00     0.012 A 
ATOM      7  C   UNL     1      -3.545   0.625 -30.166  1.00  0.00     0.047 A 
ATOM      8  C   UNL     1      -3.269  -0.647 -30.656  1.00  0.00     0.115 A 
ATOM      9  C   UNL     1      -3.601  -1.592 -28.465  1.00  0.00     0.012 A 
ATOM     10  C   UNL     1      -3.297  -1.755 -29.819  1.00  0.00     0.047 A 
BRANCH   8  11
ATOM     11  O   UNL     1      -2.965  -0.852 -31.969  1.00  0.00    -0.508 OA
ATOM     12  H   UNL     1      -2.109  -0.436 -32.161  1.00  0.00     0.293 HD
ENDBRANCH   8  11
ENDBRANCH   1   5
BRANCH   2  13
ATOM     13  C   UNL     1      -5.516  -0.314 -24.498  1.00  0.00     0.346 C 
ATOM     14  O   UNL     1      -6.272  -0.980 -23.805  1.00  0.00    -0.246 OA
BRANCH  13  15
ATOM     15  O   UNL     1      -4.783   0.688 -23.968  1.00  0.00    -0.477 OA
ATOM     16  H   UNL     1      -5.187   1.568 -23.841  1.00  0.00     0.297 HD
ENDBRANCH  13  15
ENDBRANCH   2  13
TORSDOF 4
ENDMDL
MODEL 8
REMARK VINA RESULT:      -6.1      1.806      2.344
REMARK SMILES N#CC(=Cc1ccc(O)cc1)C(=O)O
REMARK SMILES IDX 4 1 3 2 2 3 1 4 5 5 6 6 7 7 8 8 11 9 10 10 9 11 12 13 13 14
REMARK SMILES IDX 14 15
REMARK H PARENT 9 12 14 16
ROOT
ATOM      1  C   UNL     1      -5.932   0.113 -31.451  1.00  0.00     0.035 C 
ATOM      2  C   UNL     1      -4.994   0.923 -30.923  1.00  0.00     0.137 C 
ATOM      3  C   UNL     1      -5.257   2.395 -30.657  1.00  0.00     0.107 C 
ATOM      4  N   UNL     1      -5.474   3.619 -30.438  1.00  0.00    -0.192 NA
ENDROOT
BRANCH   1   5
ATOM      5  C   UNL     1      -7.285   0.529 -31.827  1.00  0.00    -0.024 A 
ATOM      6  C   UNL     1      -8.339   0.492 -30.906  1.00  0.00     0.012 A 
ATOM      7  C   UNL     1      -9.623   0.895 -31.285  1.00  0.00     0.047 A 
ATOM      8  C   UNL     1      -9.847   1.327 -32.588  1.00  0.00     0.115 A 
ATOM      9  C   UNL     1      -7.530   0.957 -33.137  1.00  0.00     0.012 A 
ATOM     10  C   UNL     1      -8.813   1.358 -33.517  1.00  0.00     0.047 A 
BRANCH   8  11
ATOM     11  O   UNL     1     -11.082   1.730 -33.001  1.00  0.00    -0.508 OA
ATOM     12  H   UNL     1     -11.418   1.091 -33.651  1.00  0.00     0.293 HD
ENDBRANCH   8  11
ENDBRANCH   1   5
BRANCH   2  13
ATOM     13  C   UNL     1      -3.663   0.350 -30.607  1.00  0.00     0.346 C 
ATOM     14  O   UNL     1      -3.328   0.032 -29.475  1.00  0.00    -0.246 OA
BRANCH  13  15
ATOM     15  O   UNL     1      -2.823   0.195 -31.653  1.00  0.00    -0.477 OA
ATOM     16  H   UNL     1      -3.123  -0.287 -32.448  1.00  0.00     0.297 HD
ENDBRANCH  13  15
ENDBRANCH   2  13
TORSDOF 4
ENDMDL
MODEL 9
REMARK VINA RESULT:      -6.1      4.899      6.658
REMARK SMILES N#CC(=Cc1ccc(O)cc1)C(=O)O
REMARK SMILES IDX 4 1 3 2 2 3 1 4 5 5 6 6 7 7 8 8 11 9 10 10 9 11 12 13 13 14
REMARK SMILES IDX 14 15
REMARK H PARENT 9 12 14 16
ROOT
ATOM      1  C   UNL     1      -9.431  -4.155 -30.429  1.00  0.00     0.035 C 
ATOM      2  C   UNL     1     -10.069  -4.521 -29.301  1.00  0.00     0.137 C 
ATOM      3  C   UNL     1      -9.825  -3.823 -27.974  1.00  0.00     0.107 C 
ATOM      4  N   UNL     1      -9.621  -3.245 -26.871  1.00  0.00    -0.192 NA
ENDROOT
BRANCH   1   5
ATOM      5  C   UNL     1      -8.448  -3.072 -30.524  1.00  0.00    -0.024 A 
ATOM      6  C   UNL     1      -7.249  -3.114 -29.802  1.00  0.00     0.012 A 
ATOM      7  C   UNL     1      -6.324  -2.071 -29.908  1.00  0.00     0.047 A 
ATOM      8  C   UNL     1      -6.608  -0.986 -30.732  1.00  0.00     0.115 A 
ATOM      9  C   UNL     1      -8.723  -1.969 -31.340  1.00  0.00     0.012 A 
ATOM     10  C   UNL     1      -7.799  -0.926 -31.445  1.00  0.00     0.047 A 
BRANCH   8  11
ATOM     11  O   UNL     1      -5.736   0.052 -30.866  1.00  0.00    -0.508 OA
ATOM     12  H   UNL     1      -6.219   0.885 -30.738  1.00  0.00     0.293 HD
ENDBRANCH   8  11
ENDBRANCH   1   5
BRANCH   2  13
ATOM     13  C   UNL     1     -11.028  -5.650 -29.368  1.00  0.00     0.346 C 
ATOM     14  O   UNL     1     -11.539  -6.146 -28.374  1.00  0.00    -0.246 OA
BRANCH  13  15
ATOM     15  O   UNL     1     -11.313  -6.112 -30.604  1.00  0.00    -0.477 OA
ATOM     16  H   UNL     1     -11.434  -7.070 -30.747  1.00  0.00     0.297 HD
ENDBRANCH  13  15
ENDBRANCH   2  13
TORSDOF 4
ENDMDL
MODEL 10
REMARK VINA RESULT:      -6.0      2.976      5.847
REMARK SMILES N#CC(=Cc1ccc(O)cc1)C(=O)O
REMARK SMILES IDX 4 1 3 2 2 3 1 4 5 5 6 6 7 7 8 8 11 9 10 10 9 11 12 13 13 14
REMARK SMILES IDX 14 15
REMARK H PARENT 9 12 14 16
ROOT
ATOM      1  C   UNL     1      -5.908  -0.391 -30.758  1.00  0.00     0.035 C 
ATOM      2  C   UNL     1      -6.881  -1.241 -30.378  1.00  0.00     0.137 C 
ATOM      3  C   UNL     1      -6.859  -1.941 -29.029  1.00  0.00     0.107 C 
ATOM      4  N   UNL     1      -6.840  -2.524 -27.910  1.00  0.00    -0.192 NA
ENDROOT
BRANCH   1   5
ATOM      5  C   UNL     1      -4.738  -0.038 -29.949  1.00  0.00    -0.024 A 
ATOM      6  C   UNL     1      -3.602  -0.857 -29.921  1.00  0.00     0.012 A 
ATOM      7  C   UNL     1      -2.495  -0.502 -29.145  1.00  0.00     0.047 A 
ATOM      8  C   UNL     1      -2.534   0.668 -28.394  1.00  0.00     0.115 A 
ATOM      9  C   UNL     1      -4.764   1.130 -29.180  1.00  0.00     0.012 A 
ATOM     10  C   UNL     1      -3.659   1.484 -28.403  1.00  0.00     0.047 A 
BRANCH   8  11
ATOM     11  O   UNL     1      -1.478   1.054 -27.623  1.00  0.00    -0.508 OA
ATOM     12  H   UNL     1      -1.180   1.930 -27.918  1.00  0.00     0.293 HD
ENDBRANCH   8  11
ENDBRANCH   1   5
BRANCH   2  13
ATOM     13  C   UNL     1      -7.997  -1.504 -31.319  1.00  0.00     0.346 C 
ATOM     14  O   UNL     1      -8.510  -0.629 -32.002  1.00  0.00    -0.246 OA
BRANCH  13  15
ATOM     15  O   UNL     1      -8.426  -2.783 -31.384  1.00  0.00    -0.477 OA
ATOM     16  H   UNL     1      -8.215  -3.402 -30.659  1.00  0.00     0.297 HD
ENDBRANCH  13  15
ENDBRANCH   2  13
TORSDOF 4
ENDMDL
