MODEL 1
REMARK VINA RESULT:      -7.0      0.000      0.000
REMARK SMILES CCCCC/C=C(\C)C=O
REMARK SMILES IDX 4 1 3 2 2 3 1 4 5 5 6 6 7 7 8 8 9 9 10 10
REMARK H PARENT
ROOT
ATOM      1  C   UNL     1       3.868  -1.224 -24.806  1.00  0.00     0.004 C 
ENDROOT
BRANCH   1   2
ATOM      2  C   UNL     1       5.042  -1.732 -23.967  1.00  0.00     0.000 C 
BRANCH   2   3
ATOM      3  C   UNL     1       4.556  -2.501 -22.738  1.00  0.00    -0.003 C 
ATOM      4  C   UNL     1       5.542  -2.390 -21.586  1.00  0.00     0.004 C 
ENDBRANCH   2   3
ENDBRANCH   1   2
BRANCH   1   5
ATOM      5  C   UNL     1       4.301  -0.922 -26.241  1.00  0.00     0.028 C 
BRANCH   5   6
ATOM      6  C   UNL     1       5.453   0.047 -26.269  1.00  0.00    -0.020 C 
ATOM      7  C   UNL     1       6.105   0.488 -27.361  1.00  0.00    -0.015 C 
ATOM      8  C   UNL     1       5.810   0.157 -28.791  1.00  0.00     0.047 C 
BRANCH   7   9
ATOM      9  C   UNL     1       7.239   1.431 -27.138  1.00  0.00     0.254 C 
ATOM     10  O   UNL     1       7.227   2.588 -27.541  1.00  0.00    -0.298 OA
ENDBRANCH   7   9
ENDBRANCH   5   6
ENDBRANCH   1   5
TORSDOF 5
ENDMDL
MODEL 2
REMARK VINA RESULT:      -7.0      1.827      3.431
REMARK SMILES CCCCC/C=C(\C)C=O
REMARK SMILES IDX 4 1 3 2 2 3 1 4 5 5 6 6 7 7 8 8 9 9 10 10
REMARK H PARENT
ROOT
ATOM      1  C   UNL     1       5.406  -1.967 -21.680  1.00  0.00     0.004 C 
ENDROOT
BRANCH   1   2
ATOM      2  C   UNL     1       5.895  -3.212 -20.937  1.00  0.00     0.000 C 
BRANCH   2   3
ATOM      3  C   UNL     1       6.625  -2.838 -19.647  1.00  0.00    -0.003 C 
ATOM      4  C   UNL     1       6.803  -1.333 -19.524  1.00  0.00     0.004 C 
ENDBRANCH   2   3
ENDBRANCH   1   2
BRANCH   1   5
ATOM      5  C   UNL     1       4.721  -2.340 -22.995  1.00  0.00     0.028 C 
BRANCH   5   6
ATOM      6  C   UNL     1       5.237  -1.504 -24.135  1.00  0.00    -0.020 C 
ATOM      7  C   UNL     1       4.500  -0.884 -25.076  1.00  0.00    -0.015 C 
ATOM      8  C   UNL     1       3.008  -0.845 -25.180  1.00  0.00     0.047 C 
BRANCH   7   9
ATOM      9  C   UNL     1       5.240  -0.130 -26.129  1.00  0.00     0.254 C 
ATOM     10  O   UNL     1       5.127  -0.377 -27.323  1.00  0.00    -0.298 OA
ENDBRANCH   7   9
ENDBRANCH   5   6
ENDBRANCH   1   5
TORSDOF 5
ENDMDL
MODEL 3
REMARK VINA RESULT:      -6.8      4.674      7.632
REMARK SMILES CCCCC/C=C(\C)C=O
REMARK SMILES IDX 4 1 3 2 2 3 1 4 5 5 6 6 7 7 8 8 9 9 10 10
REMARK H PARENT
ROOT
ATOM      1  C   UNL     1       5.630  -3.068 -21.204  1.00  0.00     0.004 C 
ENDROOT
BRANCH   1   2
ATOM      2  C   UNL     1       5.359  -1.938 -22.199  1.00  0.00     0.000 C 
BRANCH   2   3
ATOM      3  C   UNL     1       4.391  -2.382 -23.296  1.00  0.00    -0.003 C 
ATOM      4  C   UNL     1       4.570  -1.562 -24.563  1.00  0.00     0.004 C 
ENDBRANCH   2   3
ENDBRANCH   1   2
BRANCH   1   5
ATOM      5  C   UNL     1       6.862  -2.771 -20.350  1.00  0.00     0.028 C 
BRANCH   5   6
ATOM      6  C   UNL     1       6.473  -2.187 -19.018  1.00  0.00    -0.020 C 
ATOM      7  C   UNL     1       7.103  -1.196 -18.360  1.00  0.00    -0.015 C 
ATOM      8  C   UNL     1       8.298  -0.419 -18.816  1.00  0.00     0.047 C 
BRANCH   7   9
ATOM      9  C   UNL     1       6.546  -0.802 -17.034  1.00  0.00     0.254 C 
ATOM     10  O   UNL     1       6.143  -1.620 -16.215  1.00  0.00    -0.298 OA
ENDBRANCH   7   9
ENDBRANCH   5   6
ENDBRANCH   1   5
TORSDOF 5
ENDMDL
MODEL 4
REMARK VINA RESULT:      -6.7      4.371      7.474
REMARK SMILES CCCCC/C=C(\C)C=O
REMARK SMILES IDX 4 1 3 2 2 3 1 4 5 5 6 6 7 7 8 8 9 9 10 10
REMARK H PARENT
ROOT
ATOM      1  C   UNL     1       5.891  -1.979 -21.562  1.00  0.00     0.004 C 
ENDROOT
BRANCH   1   2
ATOM      2  C   UNL     1       4.846  -2.943 -22.127  1.00  0.00     0.000 C 
BRANCH   2   3
ATOM      3  C   UNL     1       4.129  -2.339 -23.335  1.00  0.00    -0.003 C 
ATOM      4  C   UNL     1       5.070  -1.492 -24.176  1.00  0.00     0.004 C 
ENDBRANCH   2   3
ENDBRANCH   1   2
BRANCH   1   5
ATOM      5  C   UNL     1       6.316  -2.388 -20.151  1.00  0.00     0.028 C 
BRANCH   5   6
ATOM      6  C   UNL     1       6.987  -1.248 -19.433  1.00  0.00    -0.020 C 
ATOM      7  C   UNL     1       6.923  -0.979 -18.115  1.00  0.00    -0.015 C 
ATOM      8  C   UNL     1       6.215  -1.771 -17.061  1.00  0.00     0.047 C 
BRANCH   7   9
ATOM      9  C   UNL     1       7.654   0.228 -17.634  1.00  0.00     0.254 C 
ATOM     10  O   UNL     1       7.122   1.095 -16.950  1.00  0.00    -0.298 OA
ENDBRANCH   7   9
ENDBRANCH   5   6
ENDBRANCH   1   5
TORSDOF 5
ENDMDL
MODEL 5
REMARK VINA RESULT:      -6.6      3.594      6.476
REMARK SMILES CCCCC/C=C(\C)C=O
REMARK SMILES IDX 4 1 3 2 2 3 1 4 5 5 6 6 7 7 8 8 9 9 10 10
REMARK H PARENT
ROOT
ATOM      1  C   UNL     1       5.146  -1.766 -23.613  1.00  0.00     0.004 C 
ENDROOT
BRANCH   1   2
ATOM      2  C   UNL     1       3.755  -1.699 -24.248  1.00  0.00     0.000 C 
BRANCH   2   3
ATOM      3  C   UNL     1       3.775  -0.892 -25.546  1.00  0.00    -0.003 C 
ATOM      4  C   UNL     1       5.170  -0.374 -25.858  1.00  0.00     0.004 C 
ENDBRANCH   2   3
ENDBRANCH   1   2
BRANCH   1   5
ATOM      5  C   UNL     1       5.089  -2.395 -22.220  1.00  0.00     0.028 C 
BRANCH   5   6
ATOM      6  C   UNL     1       5.964  -1.648 -21.250  1.00  0.00    -0.020 C 
ATOM      7  C   UNL     1       6.386  -2.084 -20.048  1.00  0.00    -0.015 C 
ATOM      8  C   UNL     1       6.123  -3.418 -19.423  1.00  0.00     0.047 C 
BRANCH   7   9
ATOM      9  C   UNL     1       7.228  -1.151 -19.246  1.00  0.00     0.254 C 
ATOM     10  O   UNL     1       7.134  -1.053 -18.029  1.00  0.00    -0.298 OA
ENDBRANCH   7   9
ENDBRANCH   5   6
ENDBRANCH   1   5
TORSDOF 5
ENDMDL
MODEL 6
REMARK VINA RESULT:      -6.1      3.534      5.998
REMARK SMILES CCCCC/C=C(\C)C=O
REMARK SMILES IDX 4 1 3 2 2 3 1 4 5 5 6 6 7 7 8 8 9 9 10 10
REMARK H PARENT
ROOT
ATOM      1  C   UNL     1       7.014  -1.446 -19.592  1.00  0.00     0.004 C 
ENDROOT
BRANCH   1   2
ATOM      2  C   UNL     1       6.373  -1.091 -18.248  1.00  0.00     0.000 C 
BRANCH   2   3
ATOM      3  C   UNL     1       7.221  -0.078 -17.479  1.00  0.00    -0.003 C 
ATOM      4  C   UNL     1       8.583  -0.651 -17.118  1.00  0.00     0.004 C 
ENDBRANCH   2   3
ENDBRANCH   1   2
BRANCH   1   5
ATOM      5  C   UNL     1       6.133  -2.409 -20.388  1.00  0.00     0.028 C 
BRANCH   5   6
ATOM      6  C   UNL     1       5.832  -1.864 -21.759  1.00  0.00    -0.020 C 
ATOM      7  C   UNL     1       4.950  -2.361 -22.646  1.00  0.00    -0.015 C 
ATOM      8  C   UNL     1       4.038  -3.533 -22.459  1.00  0.00     0.047 C 
BRANCH   7   9
ATOM      9  C   UNL     1       4.842  -1.663 -23.959  1.00  0.00     0.254 C 
ATOM     10  O   UNL     1       3.768  -1.338 -24.450  1.00  0.00    -0.298 OA
ENDBRANCH   7   9
ENDBRANCH   5   6
ENDBRANCH   1   5
TORSDOF 5
ENDMDL
MODEL 7
REMARK VINA RESULT:      -5.8      2.723      5.591
REMARK SMILES CCCCC/C=C(\C)C=O
REMARK SMILES IDX 4 1 3 2 2 3 1 4 5 5 6 6 7 7 8 8 9 9 10 10
REMARK H PARENT
ROOT
ATOM      1  C   UNL     1       4.698  -1.426 -25.876  1.00  0.00     0.004 C 
ENDROOT
BRANCH   1   2
ATOM      2  C   UNL     1       4.835   0.020 -26.357  1.00  0.00     0.000 C 
BRANCH   2   3
ATOM      3  C   UNL     1       5.642   0.100 -27.652  1.00  0.00    -0.003 C 
ATOM      4  C   UNL     1       7.132   0.219 -27.374  1.00  0.00     0.004 C 
ENDBRANCH   2   3
ENDBRANCH   1   2
BRANCH   1   5
ATOM      5  C   UNL     1       4.019  -1.493 -24.507  1.00  0.00     0.028 C 
BRANCH   5   6
ATOM      6  C   UNL     1       5.034  -1.579 -23.400  1.00  0.00    -0.020 C 
ATOM      7  C   UNL     1       5.053  -2.472 -22.393  1.00  0.00    -0.015 C 
ATOM      8  C   UNL     1       4.102  -3.607 -22.169  1.00  0.00     0.047 C 
BRANCH   7   9
ATOM      9  C   UNL     1       6.150  -2.343 -21.392  1.00  0.00     0.254 C 
ATOM     10  O   UNL     1       6.104  -1.551 -20.458  1.00  0.00    -0.298 OA
ENDBRANCH   7   9
ENDBRANCH   5   6
ENDBRANCH   1   5
TORSDOF 5
ENDMDL
MODEL 8
REMARK VINA RESULT:      -5.7      2.590      5.405
REMARK SMILES CCCCC/C=C(\C)C=O
REMARK SMILES IDX 4 1 3 2 2 3 1 4 5 5 6 6 7 7 8 8 9 9 10 10
REMARK H PARENT
ROOT
ATOM      1  C   UNL     1       5.229  -0.463 -27.283  1.00  0.00     0.004 C 
ENDROOT
BRANCH   1   2
ATOM      2  C   UNL     1       6.046   0.458 -28.192  1.00  0.00     0.000 C 
BRANCH   2   3
ATOM      3  C   UNL     1       7.095   1.236 -27.397  1.00  0.00    -0.003 C 
ATOM      4  C   UNL     1       7.097   2.709 -27.770  1.00  0.00     0.004 C 
ENDBRANCH   2   3
ENDBRANCH   1   2
BRANCH   1   5
ATOM      5  C   UNL     1       5.116   0.111 -25.871  1.00  0.00     0.028 C 
BRANCH   5   6
ATOM      6  C   UNL     1       5.187  -0.978 -24.834  1.00  0.00    -0.020 C 
ATOM      7  C   UNL     1       4.146  -1.584 -24.232  1.00  0.00    -0.015 C 
ATOM      8  C   UNL     1       2.689  -1.350 -24.485  1.00  0.00     0.047 C 
BRANCH   7   9
ATOM      9  C   UNL     1       4.465  -2.622 -23.210  1.00  0.00     0.254 C 
ATOM     10  O   UNL     1       5.062  -2.368 -22.171  1.00  0.00    -0.298 OA
ENDBRANCH   7   9
ENDBRANCH   5   6
ENDBRANCH   1   5
TORSDOF 5
ENDMDL
MODEL 9
REMARK VINA RESULT:      -5.7      5.694      8.426
REMARK SMILES CCCCC/C=C(\C)C=O
REMARK SMILES IDX 4 1 3 2 2 3 1 4 5 5 6 6 7 7 8 8 9 9 10 10
REMARK H PARENT
ROOT
ATOM      1  C   UNL     1       7.243  -2.302 -19.881  1.00  0.00     0.004 C 
ENDROOT
BRANCH   1   2
ATOM      2  C   UNL     1       6.160  -3.031 -20.679  1.00  0.00     0.000 C 
BRANCH   2   3
ATOM      3  C   UNL     1       5.569  -2.131 -21.765  1.00  0.00    -0.003 C 
ATOM      4  C   UNL     1       4.523  -2.865 -22.587  1.00  0.00     0.004 C 
ENDBRANCH   2   3
ENDBRANCH   1   2
BRANCH   1   5
ATOM      5  C   UNL     1       6.639  -1.217 -18.989  1.00  0.00     0.028 C 
BRANCH   5   6
ATOM      6  C   UNL     1       7.707  -0.321 -18.422  1.00  0.00    -0.020 C 
ATOM      7  C   UNL     1       8.200  -0.351 -17.170  1.00  0.00    -0.015 C 
ATOM      8  C   UNL     1       7.836  -1.303 -16.074  1.00  0.00     0.047 C 
BRANCH   7   9
ATOM      9  C   UNL     1       9.241   0.660 -16.827  1.00  0.00     0.254 C 
ATOM     10  O   UNL     1       9.166   1.379 -15.837  1.00  0.00    -0.298 OA
ENDBRANCH   7   9
ENDBRANCH   5   6
ENDBRANCH   1   5
TORSDOF 5
ENDMDL
MODEL 10
REMARK VINA RESULT:      -5.4     12.203     13.352
REMARK SMILES CCCCC/C=C(\C)C=O
REMARK SMILES IDX 4 1 3 2 2 3 1 4 5 5 6 6 7 7 8 8 9 9 10 10
REMARK H PARENT
ROOT
ATOM      1  C   UNL     1      -4.281  -9.010 -27.017  1.00  0.00     0.004 C 
ENDROOT
BRANCH   1   2
ATOM      2  C   UNL     1      -4.783 -10.456 -27.041  1.00  0.00     0.000 C 
BRANCH   2   3
ATOM      3  C   UNL     1      -5.771 -10.720 -25.904  1.00  0.00    -0.003 C 
ATOM      4  C   UNL     1      -6.401 -12.098 -26.024  1.00  0.00     0.004 C 
ENDBRANCH   2   3
ENDBRANCH   1   2
BRANCH   1   5
ATOM      5  C   UNL     1      -2.995  -8.857 -27.829  1.00  0.00     0.028 C 
BRANCH   5   6
ATOM      6  C   UNL     1      -1.779  -9.079 -26.971  1.00  0.00    -0.020 C 
ATOM      7  C   UNL     1      -1.011 -10.185 -26.935  1.00  0.00    -0.015 C 
ATOM      8  C   UNL     1      -1.159 -11.420 -27.766  1.00  0.00     0.047 C 
BRANCH   7   9
ATOM      9  C   UNL     1       0.134 -10.184 -25.979  1.00  0.00     0.254 C 
ATOM     10  O   UNL     1       0.633 -11.214 -25.543  1.00  0.00    -0.298 OA
ENDBRANCH   7   9
ENDBRANCH   5   6
ENDBRANCH   1   5
TORSDOF 5
ENDMDL
