MODEL 1
REMARK VINA RESULT:      -5.3      0.000      0.000
REMARK SMILES COc1cc(C)ccc1O
REMARK SMILES IDX 6 1 5 2 4 3 3 4 9 5 8 6 7 7 2 8 1 9 10 10
REMARK H PARENT 10 11
ROOT
ATOM      1  C   UNL     1      -4.824 -10.427 -27.331  1.00  0.00     0.044 C 
ATOM      2  C   UNL     1      -3.374 -10.041 -27.342  1.00  0.00    -0.047 A 
ATOM      3  C   UNL     1      -2.366 -11.017 -27.262  1.00  0.00     0.053 A 
ATOM      4  C   UNL     1      -1.021 -10.645 -27.276  1.00  0.00     0.160 A 
ATOM      5  C   UNL     1      -0.697  -9.287 -27.371  1.00  0.00     0.157 A 
ATOM      6  C   UNL     1      -1.679  -8.308 -27.451  1.00  0.00     0.050 A 
ATOM      7  C   UNL     1      -3.020  -8.687 -27.437  1.00  0.00     0.007 A 
ENDROOT
BRANCH   4   8
ATOM      8  O   UNL     1       0.057 -11.492 -27.203  1.00  0.00    -0.493 OA
ATOM      9  C   UNL     1       0.451 -11.908 -25.900  1.00  0.00     0.278 C 
ENDBRANCH   4   8
BRANCH   5  10
ATOM     10  O   UNL     1       0.613  -8.892 -27.387  1.00  0.00    -0.504 OA
ATOM     11  H   UNL     1       1.094  -9.643 -27.784  1.00  0.00     0.293 HD
ENDBRANCH   5  10
TORSDOF 2
ENDMDL
MODEL 2
REMARK VINA RESULT:      -5.2     10.501     10.871
REMARK SMILES COc1cc(C)ccc1O
REMARK SMILES IDX 6 1 5 2 4 3 3 4 9 5 8 6 7 7 2 8 1 9 10 10
REMARK H PARENT 10 11
ROOT
ATOM      1  C   UNL     1      -4.154   0.026 -26.225  1.00  0.00     0.044 C 
ATOM      2  C   UNL     1      -3.707  -0.003 -27.657  1.00  0.00    -0.047 A 
ATOM      3  C   UNL     1      -4.591  -0.383 -28.682  1.00  0.00     0.053 A 
ATOM      4  C   UNL     1      -4.164  -0.405 -30.011  1.00  0.00     0.160 A 
ATOM      5  C   UNL     1      -2.845  -0.039 -30.302  1.00  0.00     0.157 A 
ATOM      6  C   UNL     1      -1.957   0.340 -29.303  1.00  0.00     0.050 A 
ATOM      7  C   UNL     1      -2.390   0.358 -27.979  1.00  0.00     0.007 A 
ENDROOT
BRANCH   4   8
ATOM      8  O   UNL     1      -4.919  -0.756 -31.101  1.00  0.00    -0.493 OA
ATOM      9  C   UNL     1      -6.254  -0.264 -31.135  1.00  0.00     0.278 C 
ENDBRANCH   4   8
BRANCH   5  10
ATOM     10  O   UNL     1      -2.397  -0.050 -31.595  1.00  0.00    -0.504 OA
ATOM     11  H   UNL     1      -1.426  -0.126 -31.521  1.00  0.00     0.293 HD
ENDBRANCH   5  10
TORSDOF 2
ENDMDL
MODEL 3
REMARK VINA RESULT:      -5.2      9.285     10.747
REMARK SMILES COc1cc(C)ccc1O
REMARK SMILES IDX 6 1 5 2 4 3 3 4 9 5 8 6 7 7 2 8 1 9 10 10
REMARK H PARENT 10 11
ROOT
ATOM      1  C   UNL     1      -5.291  -1.402 -25.892  1.00  0.00     0.044 C 
ATOM      2  C   UNL     1      -4.366  -0.935 -26.977  1.00  0.00    -0.047 A 
ATOM      3  C   UNL     1      -3.786   0.345 -26.931  1.00  0.00     0.053 A 
ATOM      4  C   UNL     1      -2.926   0.767 -27.946  1.00  0.00     0.160 A 
ATOM      5  C   UNL     1      -2.652  -0.105 -29.005  1.00  0.00     0.157 A 
ATOM      6  C   UNL     1      -3.215  -1.374 -29.067  1.00  0.00     0.050 A 
ATOM      7  C   UNL     1      -4.073  -1.788 -28.052  1.00  0.00     0.007 A 
ENDROOT
BRANCH   4   8
ATOM      8  O   UNL     1      -2.297   1.984 -28.023  1.00  0.00    -0.493 OA
ATOM      9  C   UNL     1      -3.118   3.104 -28.335  1.00  0.00     0.278 C 
ENDBRANCH   4   8
BRANCH   5  10
ATOM     10  O   UNL     1      -1.812   0.280 -30.014  1.00  0.00    -0.504 OA
ATOM     11  H   UNL     1      -1.238   0.960 -29.614  1.00  0.00     0.293 HD
ENDBRANCH   5  10
TORSDOF 2
ENDMDL
MODEL 4
REMARK VINA RESULT:      -5.2     13.899     15.115
REMARK SMILES COc1cc(C)ccc1O
REMARK SMILES IDX 6 1 5 2 4 3 3 4 9 5 8 6 7 7 2 8 1 9 10 10
REMARK H PARENT 10 11
ROOT
ATOM      1  C   UNL     1       7.689   1.185 -17.173  1.00  0.00     0.044 C 
ATOM      2  C   UNL     1       7.204  -0.193 -17.520  1.00  0.00    -0.047 A 
ATOM      3  C   UNL     1       7.334  -0.696 -18.826  1.00  0.00     0.053 A 
ATOM      4  C   UNL     1       6.881  -1.980 -19.136  1.00  0.00     0.160 A 
ATOM      5  C   UNL     1       6.299  -2.753 -18.125  1.00  0.00     0.157 A 
ATOM      6  C   UNL     1       6.163  -2.272 -16.829  1.00  0.00     0.050 A 
ATOM      7  C   UNL     1       6.616  -0.990 -16.527  1.00  0.00     0.007 A 
ENDROOT
BRANCH   4   8
ATOM      8  O   UNL     1       6.945  -2.589 -20.364  1.00  0.00    -0.493 OA
ATOM      9  C   UNL     1       5.931  -2.239 -21.300  1.00  0.00     0.278 C 
ENDBRANCH   4   8
BRANCH   5  10
ATOM     10  O   UNL     1       5.846  -4.015 -18.398  1.00  0.00    -0.504 OA
ATOM     11  H   UNL     1       5.249  -4.230 -17.657  1.00  0.00     0.293 HD
ENDBRANCH   5  10
TORSDOF 2
ENDMDL
MODEL 5
REMARK VINA RESULT:      -5.1      1.763      3.465
REMARK SMILES COc1cc(C)ccc1O
REMARK SMILES IDX 6 1 5 2 4 3 3 4 9 5 8 6 7 7 2 8 1 9 10 10
REMARK H PARENT 10 11
ROOT
ATOM      1  C   UNL     1       0.770 -11.725 -25.450  1.00  0.00     0.044 C 
ATOM      2  C   UNL     1      -0.108 -10.796 -26.236  1.00  0.00    -0.047 A 
ATOM      3  C   UNL     1      -1.377 -11.206 -26.681  1.00  0.00     0.053 A 
ATOM      4  C   UNL     1      -2.186 -10.332 -27.409  1.00  0.00     0.160 A 
ATOM      5  C   UNL     1      -1.712  -9.044 -27.684  1.00  0.00     0.157 A 
ATOM      6  C   UNL     1      -0.462  -8.621 -27.251  1.00  0.00     0.050 A 
ATOM      7  C   UNL     1       0.341  -9.499 -26.526  1.00  0.00     0.007 A 
ENDROOT
BRANCH   4   8
ATOM      8  O   UNL     1      -3.437 -10.604 -27.903  1.00  0.00    -0.493 OA
ATOM      9  C   UNL     1      -4.524 -10.452 -26.998  1.00  0.00     0.278 C 
ENDBRANCH   4   8
BRANCH   5  10
ATOM     10  O   UNL     1      -2.482  -8.164 -28.394  1.00  0.00    -0.504 OA
ATOM     11  H   UNL     1      -2.906  -7.602 -27.718  1.00  0.00     0.293 HD
ENDBRANCH   5  10
TORSDOF 2
ENDMDL
MODEL 6
REMARK VINA RESULT:      -5.1      9.427     10.761
REMARK SMILES COc1cc(C)ccc1O
REMARK SMILES IDX 6 1 5 2 4 3 3 4 9 5 8 6 7 7 2 8 1 9 10 10
REMARK H PARENT 10 11
ROOT
ATOM      1  C   UNL     1      -4.778  -2.222 -27.301  1.00  0.00     0.044 C 
ATOM      2  C   UNL     1      -4.428  -1.471 -28.552  1.00  0.00    -0.047 A 
ATOM      3  C   UNL     1      -5.408  -1.178 -29.516  1.00  0.00     0.053 A 
ATOM      4  C   UNL     1      -5.071  -0.477 -30.675  1.00  0.00     0.160 A 
ATOM      5  C   UNL     1      -3.744  -0.070 -30.857  1.00  0.00     0.157 A 
ATOM      6  C   UNL     1      -2.762  -0.350 -29.915  1.00  0.00     0.050 A 
ATOM      7  C   UNL     1      -3.106  -1.051 -28.761  1.00  0.00     0.007 A 
ENDROOT
BRANCH   4   8
ATOM      8  O   UNL     1      -5.925  -0.129 -31.691  1.00  0.00    -0.493 OA
ATOM      9  C   UNL     1      -7.298  -0.457 -31.508  1.00  0.00     0.278 C 
ENDBRANCH   4   8
BRANCH   5  10
ATOM     10  O   UNL     1      -3.383   0.619 -31.982  1.00  0.00    -0.504 OA
ATOM     11  H   UNL     1      -3.188   1.523 -31.667  1.00  0.00     0.293 HD
ENDBRANCH   5  10
TORSDOF 2
ENDMDL
MODEL 7
REMARK VINA RESULT:      -5.0     13.260     14.217
REMARK SMILES COc1cc(C)ccc1O
REMARK SMILES IDX 6 1 5 2 4 3 3 4 9 5 8 6 7 7 2 8 1 9 10 10
REMARK H PARENT 10 11
ROOT
ATOM      1  C   UNL     1      -6.068   1.382 -32.045  1.00  0.00     0.044 C 
ATOM      2  C   UNL     1      -7.494   0.970 -32.267  1.00  0.00    -0.047 A 
ATOM      3  C   UNL     1      -8.342   0.689 -31.182  1.00  0.00     0.053 A 
ATOM      4  C   UNL     1      -9.667   0.308 -31.400  1.00  0.00     0.160 A 
ATOM      5  C   UNL     1     -10.134   0.214 -32.716  1.00  0.00     0.157 A 
ATOM      6  C   UNL     1      -9.311   0.488 -33.801  1.00  0.00     0.050 A 
ATOM      7  C   UNL     1      -7.990   0.867 -33.576  1.00  0.00     0.007 A 
ENDROOT
BRANCH   4   8
ATOM      8  O   UNL     1     -10.594   0.005 -30.436  1.00  0.00    -0.493 OA
ATOM      9  C   UNL     1     -10.107  -0.646 -29.268  1.00  0.00     0.278 C 
ENDBRANCH   4   8
BRANCH   5  10
ATOM     10  O   UNL     1     -11.428  -0.156 -32.963  1.00  0.00    -0.504 OA
ATOM     11  H   UNL     1     -11.860   0.656 -33.289  1.00  0.00     0.293 HD
ENDBRANCH   5  10
TORSDOF 2
ENDMDL
MODEL 8
REMARK VINA RESULT:      -5.0      8.907     10.358
REMARK SMILES COc1cc(C)ccc1O
REMARK SMILES IDX 6 1 5 2 4 3 3 4 9 5 8 6 7 7 2 8 1 9 10 10
REMARK H PARENT 10 11
ROOT
ATOM      1  C   UNL     1      -1.950   1.312 -27.989  1.00  0.00     0.044 C 
ATOM      2  C   UNL     1      -2.947   0.207 -27.797  1.00  0.00    -0.047 A 
ATOM      3  C   UNL     1      -3.799   0.189 -26.679  1.00  0.00     0.053 A 
ATOM      4  C   UNL     1      -4.724  -0.843 -26.513  1.00  0.00     0.160 A 
ATOM      5  C   UNL     1      -4.787  -1.854 -27.478  1.00  0.00     0.157 A 
ATOM      6  C   UNL     1      -3.954  -1.853 -28.589  1.00  0.00     0.050 A 
ATOM      7  C   UNL     1      -3.033  -0.820 -28.748  1.00  0.00     0.007 A 
ENDROOT
BRANCH   4   8
ATOM      8  O   UNL     1      -5.608  -0.982 -25.473  1.00  0.00    -0.493 OA
ATOM      9  C   UNL     1      -5.467  -0.065 -24.393  1.00  0.00     0.278 C 
ENDBRANCH   4   8
BRANCH   5  10
ATOM     10  O   UNL     1      -5.684  -2.879 -27.343  1.00  0.00    -0.504 OA
ATOM     11  H   UNL     1      -5.636  -3.363 -28.189  1.00  0.00     0.293 HD
ENDBRANCH   5  10
TORSDOF 2
ENDMDL
MODEL 9
REMARK VINA RESULT:      -4.9      9.859     11.590
REMARK SMILES COc1cc(C)ccc1O
REMARK SMILES IDX 6 1 5 2 4 3 3 4 9 5 8 6 7 7 2 8 1 9 10 10
REMARK H PARENT 10 11
ROOT
ATOM      1  C   UNL     1      -3.157   3.173 -28.313  1.00  0.00     0.044 C 
ATOM      2  C   UNL     1      -3.273   1.804 -28.916  1.00  0.00    -0.047 A 
ATOM      3  C   UNL     1      -4.207   1.540 -29.932  1.00  0.00     0.053 A 
ATOM      4  C   UNL     1      -4.305   0.262 -30.487  1.00  0.00     0.160 A 
ATOM      5  C   UNL     1      -3.458  -0.746 -30.014  1.00  0.00     0.157 A 
ATOM      6  C   UNL     1      -2.529  -0.503 -29.010  1.00  0.00     0.050 A 
ATOM      7  C   UNL     1      -2.437   0.773 -28.460  1.00  0.00     0.007 A 
ENDROOT
BRANCH   4   8
ATOM      8  O   UNL     1      -5.170  -0.128 -31.478  1.00  0.00    -0.493 OA
ATOM      9  C   UNL     1      -6.540  -0.254 -31.113  1.00  0.00     0.278 C 
ENDBRANCH   4   8
BRANCH   5  10
ATOM     10  O   UNL     1      -3.530  -2.008 -30.538  1.00  0.00    -0.504 OA
ATOM     11  H   UNL     1      -2.726  -2.096 -31.083  1.00  0.00     0.293 HD
ENDBRANCH   5  10
TORSDOF 2
ENDMDL
MODEL 10
REMARK VINA RESULT:      -4.8     14.001     15.163
REMARK SMILES COc1cc(C)ccc1O
REMARK SMILES IDX 6 1 5 2 4 3 3 4 9 5 8 6 7 7 2 8 1 9 10 10
REMARK H PARENT 10 11
ROOT
ATOM      1  C   UNL     1       6.339  -2.480 -21.392  1.00  0.00     0.044 C 
ATOM      2  C   UNL     1       6.348  -2.234 -19.911  1.00  0.00    -0.047 A 
ATOM      3  C   UNL     1       6.731  -0.987 -19.389  1.00  0.00     0.053 A 
ATOM      4  C   UNL     1       6.734  -0.769 -18.009  1.00  0.00     0.160 A 
ATOM      5  C   UNL     1       6.349  -1.814 -17.161  1.00  0.00     0.157 A 
ATOM      6  C   UNL     1       5.967  -3.053 -17.659  1.00  0.00     0.050 A 
ATOM      7  C   UNL     1       5.968  -3.263 -19.036  1.00  0.00     0.007 A 
ENDROOT
BRANCH   4   8
ATOM      8  O   UNL     1       7.085   0.393 -17.371  1.00  0.00    -0.493 OA
ATOM      9  C   UNL     1       8.478   0.650 -17.239  1.00  0.00     0.278 C 
ENDBRANCH   4   8
BRANCH   5  10
ATOM     10  O   UNL     1       6.341  -1.632 -15.805  1.00  0.00    -0.504 OA
ATOM     11  H   UNL     1       5.803  -0.829 -15.665  1.00  0.00     0.293 HD
ENDBRANCH   5  10
TORSDOF 2
ENDMDL
