MODEL 1
REMARK VINA RESULT:      -5.6      0.000      0.000
REMARK SMILES C=CC[S@@](=O)C[C@H](N)C(=O)O
REMARK SMILES IDX 6 1 4 2 5 3 3 4 2 5 1 6 7 7 9 8 10 9 11 10 8 12
REMARK H PARENT 11 11 8 13 8 14
ROOT
ATOM      1  C   UNL     1      -3.723 -10.639 -27.071  1.00  0.00     0.136 C 
ENDROOT
BRANCH   1   2
ATOM      2  S   UNL     1      -2.750  -9.121 -27.367  1.00  0.00     0.027 S 
ATOM      3  O   UNL     1      -3.033  -8.686 -28.777  1.00  0.00    -0.259 OA
BRANCH   2   4
ATOM      4  C   UNL     1      -1.105  -9.921 -27.372  1.00  0.00     0.131 C 
BRANCH   4   5
ATOM      5  C   UNL     1      -0.498  -9.851 -26.005  1.00  0.00    -0.021 C 
ATOM      6  C   UNL     1       0.465 -10.665 -25.553  1.00  0.00     0.005 C 
ENDBRANCH   4   5
ENDBRANCH   2   4
ENDBRANCH   1   2
BRANCH   1   7
ATOM      7  C   UNL     1      -5.232 -10.378 -27.135  1.00  0.00     0.174 C 
BRANCH   7   8
ATOM      8  C   UNL     1      -6.019 -11.358 -26.249  1.00  0.00     0.321 C 
ATOM      9  O   UNL     1      -6.059 -11.341 -25.030  1.00  0.00    -0.251 OA
BRANCH   8  10
ATOM     10  O   UNL     1      -6.747 -12.237 -26.985  1.00  0.00    -0.480 OA
ATOM     11  H   UNL     1      -6.733 -12.056 -27.945  1.00  0.00     0.296 HD
ENDBRANCH   8  10
ENDBRANCH   7   8
BRANCH   7  12
ATOM     12  N   UNL     1      -5.540  -8.991 -26.709  1.00  0.00    -0.318 NA
ATOM     13  H   UNL     1      -5.180  -8.343 -27.416  1.00  0.00     0.119 HD
ATOM     14  H   UNL     1      -5.030  -8.746 -25.860  1.00  0.00     0.119 HD
ENDBRANCH   7  12
ENDBRANCH   1   7
TORSDOF 7
ENDMDL
MODEL 2
REMARK VINA RESULT:      -5.4      3.284      5.266
REMARK SMILES C=CC[S@@](=O)C[C@H](N)C(=O)O
REMARK SMILES IDX 6 1 4 2 5 3 3 4 2 5 1 6 7 7 9 8 10 9 11 10 8 12
REMARK H PARENT 11 11 8 13 8 14
ROOT
ATOM      1  C   UNL     1      -1.492  -9.851 -26.229  1.00  0.00     0.136 C 
ENDROOT
BRANCH   1   2
ATOM      2  S   UNL     1      -2.108  -9.816 -27.950  1.00  0.00     0.027 S 
ATOM      3  O   UNL     1      -2.401  -8.380 -28.282  1.00  0.00    -0.259 OA
BRANCH   2   4
ATOM      4  C   UNL     1      -3.713 -10.628 -27.618  1.00  0.00     0.131 C 
BRANCH   4   5
ATOM      5  C   UNL     1      -4.709  -9.616 -27.140  1.00  0.00    -0.021 C 
ATOM      6  C   UNL     1      -5.766  -9.891 -26.364  1.00  0.00     0.005 C 
ENDBRANCH   4   5
ENDBRANCH   2   4
ENDBRANCH   1   2
BRANCH   1   7
ATOM      7  C   UNL     1       0.039  -9.823 -26.164  1.00  0.00     0.174 C 
BRANCH   7   8
ATOM      8  C   UNL     1       0.614 -11.165 -25.681  1.00  0.00     0.321 C 
ATOM      9  O   UNL     1       0.530 -12.229 -26.270  1.00  0.00    -0.251 OA
BRANCH   8  10
ATOM     10  O   UNL     1       1.310 -11.032 -24.522  1.00  0.00    -0.480 OA
ATOM     11  H   UNL     1       2.265 -10.877 -24.650  1.00  0.00     0.296 HD
ENDBRANCH   8  10
ENDBRANCH   7   8
BRANCH   7  12
ATOM     12  N   UNL     1       0.611  -9.506 -27.495  1.00  0.00    -0.318 NA
ATOM     13  H   UNL     1       1.629  -9.436 -27.407  1.00  0.00     0.119 HD
ATOM     14  H   UNL     1       0.321  -8.579 -27.809  1.00  0.00     0.119 HD
ENDBRANCH   7  12
ENDBRANCH   1   7
TORSDOF 7
ENDMDL
MODEL 3
REMARK VINA RESULT:      -5.0      2.435      2.961
REMARK SMILES C=CC[S@@](=O)C[C@H](N)C(=O)O
REMARK SMILES IDX 6 1 4 2 5 3 3 4 2 5 1 6 7 7 9 8 10 9 11 10 8 12
REMARK H PARENT 11 11 8 13 8 14
ROOT
ATOM      1  C   UNL     1      -1.904 -10.049 -26.722  1.00  0.00     0.136 C 
ENDROOT
BRANCH   1   2
ATOM      2  S   UNL     1      -0.425 -10.960 -27.288  1.00  0.00     0.027 S 
ATOM      3  O   UNL     1      -0.884 -12.328 -27.705  1.00  0.00    -0.259 OA
BRANCH   2   4
ATOM      4  C   UNL     1       0.359 -11.133 -25.645  1.00  0.00     0.131 C 
BRANCH   4   5
ATOM      5  C   UNL     1       0.881 -12.527 -25.473  1.00  0.00    -0.021 C 
ATOM      6  C   UNL     1       0.676 -13.292 -24.392  1.00  0.00     0.005 C 
ENDBRANCH   4   5
ENDBRANCH   2   4
ENDBRANCH   1   2
BRANCH   1   7
ATOM      7  C   UNL     1      -3.041 -10.099 -27.750  1.00  0.00     0.174 C 
BRANCH   7   8
ATOM      8  C   UNL     1      -4.422 -10.089 -27.074  1.00  0.00     0.321 C 
ATOM      9  O   UNL     1      -5.126 -11.065 -26.878  1.00  0.00    -0.251 OA
BRANCH   8  10
ATOM     10  O   UNL     1      -4.766  -8.848 -26.640  1.00  0.00    -0.480 OA
ATOM     11  H   UNL     1      -4.885  -8.788 -25.673  1.00  0.00     0.296 HD
ENDBRANCH   8  10
ENDBRANCH   7   8
BRANCH   7  12
ATOM     12  N   UNL     1      -2.952  -8.949 -28.682  1.00  0.00    -0.318 NA
ATOM     13  H   UNL     1      -3.253  -9.255 -29.612  1.00  0.00     0.119 HD
ATOM     14  H   UNL     1      -1.983  -8.656 -28.814  1.00  0.00     0.119 HD
ENDBRANCH   7  12
ENDBRANCH   1   7
TORSDOF 7
ENDMDL
MODEL 4
REMARK VINA RESULT:      -5.0     16.080     17.826
REMARK SMILES C=CC[S@@](=O)C[C@H](N)C(=O)O
REMARK SMILES IDX 6 1 4 2 5 3 3 4 2 5 1 6 7 7 9 8 10 9 11 10 8 12
REMARK H PARENT 11 11 8 13 8 14
ROOT
ATOM      1  C   UNL     1       8.151  -0.526 -18.031  1.00  0.00     0.136 C 
ENDROOT
BRANCH   1   2
ATOM      2  S   UNL     1       6.440  -1.152 -18.167  1.00  0.00     0.027 S 
ATOM      3  O   UNL     1       6.200  -2.038 -16.978  1.00  0.00    -0.259 OA
BRANCH   2   4
ATOM      4  C   UNL     1       6.727  -2.247 -19.604  1.00  0.00     0.131 C 
BRANCH   4   5
ATOM      5  C   UNL     1       6.006  -1.715 -20.805  1.00  0.00    -0.021 C 
ATOM      6  C   UNL     1       5.527  -2.468 -21.804  1.00  0.00     0.005 C 
ENDBRANCH   4   5
ENDBRANCH   2   4
ENDBRANCH   1   2
BRANCH   1   7
ATOM      7  C   UNL     1       8.436   0.079 -16.652  1.00  0.00     0.174 C 
BRANCH   7   8
ATOM      8  C   UNL     1       9.382  -0.807 -15.824  1.00  0.00     0.321 C 
ATOM      9  O   UNL     1      10.519  -0.518 -15.492  1.00  0.00    -0.251 OA
BRANCH   8  10
ATOM     10  O   UNL     1       8.781  -1.958 -15.426  1.00  0.00    -0.480 OA
ATOM     11  H   UNL     1       9.337  -2.753 -15.539  1.00  0.00     0.296 HD
ENDBRANCH   8  10
ENDBRANCH   7   8
BRANCH   7  12
ATOM     12  N   UNL     1       9.038   1.428 -16.790  1.00  0.00    -0.318 NA
ATOM     13  H   UNL     1       8.885   1.947 -15.920  1.00  0.00     0.119 HD
ATOM     14  H   UNL     1       8.552   1.977 -17.500  1.00  0.00     0.119 HD
ENDBRANCH   7  12
ENDBRANCH   1   7
TORSDOF 7
ENDMDL
MODEL 5
REMARK VINA RESULT:      -5.0     14.292     16.086
REMARK SMILES C=CC[S@@](=O)C[C@H](N)C(=O)O
REMARK SMILES IDX 6 1 4 2 5 3 3 4 2 5 1 6 7 7 9 8 10 9 11 10 8 12
REMARK H PARENT 11 11 8 13 8 14
ROOT
ATOM      1  C   UNL     1       6.628  -1.330 -19.026  1.00  0.00     0.136 C 
ENDROOT
BRANCH   1   2
ATOM      2  S   UNL     1       6.311  -2.764 -20.114  1.00  0.00     0.027 S 
ATOM      3  O   UNL     1       7.649  -3.347 -20.472  1.00  0.00    -0.259 OA
BRANCH   2   4
ATOM      4  C   UNL     1       5.737  -1.808 -21.564  1.00  0.00     0.131 C 
BRANCH   4   5
ATOM      5  C   UNL     1       4.845  -2.658 -22.416  1.00  0.00    -0.021 C 
ATOM      6  C   UNL     1       4.277  -2.260 -23.562  1.00  0.00     0.005 C 
ENDBRANCH   4   5
ENDBRANCH   2   4
ENDBRANCH   1   2
BRANCH   1   7
ATOM      7  C   UNL     1       7.019  -1.758 -17.607  1.00  0.00     0.174 C 
BRANCH   7   8
ATOM      8  C   UNL     1       8.120  -0.857 -17.022  1.00  0.00     0.321 C 
ATOM      9  O   UNL     1       8.346   0.295 -17.352  1.00  0.00    -0.251 OA
BRANCH   8  10
ATOM     10  O   UNL     1       8.798  -1.469 -16.018  1.00  0.00    -0.480 OA
ATOM     11  H   UNL     1       9.734  -1.652 -16.227  1.00  0.00     0.296 HD
ENDBRANCH   8  10
ENDBRANCH   7   8
BRANCH   7  12
ATOM     12  N   UNL     1       5.840  -1.722 -16.708  1.00  0.00    -0.318 NA
ATOM     13  H   UNL     1       5.229  -2.512 -16.936  1.00  0.00     0.119 HD
ATOM     14  H   UNL     1       5.265  -0.898 -16.889  1.00  0.00     0.119 HD
ENDBRANCH   7  12
ENDBRANCH   1   7
TORSDOF 7
ENDMDL
MODEL 6
REMARK VINA RESULT:      -4.6     17.032     18.920
REMARK SMILES C=CC[S@@](=O)C[C@H](N)C(=O)O
REMARK SMILES IDX 6 1 4 2 5 3 3 4 2 5 1 6 7 7 9 8 10 9 11 10 8 12
REMARK H PARENT 11 11 8 13 8 14
ROOT
ATOM      1  C   UNL     1       8.704  -0.637 -16.741  1.00  0.00     0.136 C 
ENDROOT
BRANCH   1   2
ATOM      2  S   UNL     1       7.056  -0.593 -17.529  1.00  0.00     0.027 S 
ATOM      3  O   UNL     1       6.210  -1.623 -16.836  1.00  0.00    -0.259 OA
BRANCH   2   4
ATOM      4  C   UNL     1       7.567  -1.308 -19.133  1.00  0.00     0.131 C 
BRANCH   4   5
ATOM      5  C   UNL     1       6.359  -1.624 -19.960  1.00  0.00    -0.021 C 
ATOM      6  C   UNL     1       6.263  -2.653 -20.812  1.00  0.00     0.005 C 
ENDBRANCH   4   5
ENDBRANCH   2   4
ENDBRANCH   1   2
BRANCH   1   7
ATOM      7  C   UNL     1       8.947   0.579 -15.841  1.00  0.00     0.174 C 
BRANCH   7   8
ATOM      8  C   UNL     1      10.406   1.059 -15.910  1.00  0.00     0.321 C 
ATOM      9  O   UNL     1      11.392   0.342 -15.906  1.00  0.00    -0.251 OA
BRANCH   8  10
ATOM     10  O   UNL     1      10.491   2.408 -16.048  1.00  0.00    -0.480 OA
ATOM     11  H   UNL     1      11.337   2.784 -15.737  1.00  0.00     0.296 HD
ENDBRANCH   8  10
ENDBRANCH   7   8
BRANCH   7  12
ATOM     12  N   UNL     1       8.053   1.699 -16.226  1.00  0.00    -0.318 NA
ATOM     13  H   UNL     1       7.731   2.170 -15.375  1.00  0.00     0.119 HD
ATOM     14  H   UNL     1       7.198   1.353 -16.663  1.00  0.00     0.119 HD
ENDBRANCH   7  12
ENDBRANCH   1   7
TORSDOF 7
ENDMDL
MODEL 7
REMARK VINA RESULT:      -4.5     11.250     12.486
REMARK SMILES C=CC[S@@](=O)C[C@H](N)C(=O)O
REMARK SMILES IDX 6 1 4 2 5 3 3 4 2 5 1 6 7 7 9 8 10 9 11 10 8 12
REMARK H PARENT 11 11 8 13 8 14
ROOT
ATOM      1  C   UNL     1      -8.662  -0.858 -32.310  1.00  0.00     0.136 C 
ENDROOT
BRANCH   1   2
ATOM      2  S   UNL     1      -7.623  -0.458 -30.861  1.00  0.00     0.027 S 
ATOM      3  O   UNL     1      -6.237  -0.951 -31.164  1.00  0.00    -0.259 OA
BRANCH   2   4
ATOM      4  C   UNL     1      -8.384  -1.663 -29.715  1.00  0.00     0.131 C 
BRANCH   4   5
ATOM      5  C   UNL     1      -7.655  -2.970 -29.790  1.00  0.00    -0.021 C 
ATOM      6  C   UNL     1      -8.147  -4.090 -30.337  1.00  0.00     0.005 C 
ENDBRANCH   4   5
ENDBRANCH   2   4
ENDBRANCH   1   2
BRANCH   1   7
ATOM      7  C   UNL     1      -9.076   0.397 -33.087  1.00  0.00     0.174 C 
BRANCH   7   8
ATOM      8  C   UNL     1     -10.598   0.615 -33.050  1.00  0.00     0.321 C 
ATOM      9  O   UNL     1     -11.441  -0.264 -32.990  1.00  0.00    -0.251 OA
BRANCH   8  10
ATOM     10  O   UNL     1     -10.922   1.934 -33.023  1.00  0.00    -0.480 OA
ATOM     11  H   UNL     1     -11.331   2.257 -33.849  1.00  0.00     0.296 HD
ENDBRANCH   8  10
ENDBRANCH   7   8
BRANCH   7  12
ATOM     12  N   UNL     1      -8.404   1.598 -32.533  1.00  0.00    -0.318 NA
ATOM     13  H   UNL     1      -8.407   2.334 -33.245  1.00  0.00     0.119 HD
ATOM     14  H   UNL     1      -7.415   1.419 -32.358  1.00  0.00     0.119 HD
ENDBRANCH   7  12
ENDBRANCH   1   7
TORSDOF 7
ENDMDL
MODEL 8
REMARK VINA RESULT:      -4.5     11.417     13.106
REMARK SMILES C=CC[S@@](=O)C[C@H](N)C(=O)O
REMARK SMILES IDX 6 1 4 2 5 3 3 4 2 5 1 6 7 7 9 8 10 9 11 10 8 12
REMARK H PARENT 11 11 8 13 8 14
ROOT
ATOM      1  C   UNL     1      -5.814  -0.081 -31.229  1.00  0.00     0.136 C 
ENDROOT
BRANCH   1   2
ATOM      2  S   UNL     1      -6.868   0.939 -32.320  1.00  0.00     0.027 S 
ATOM      3  O   UNL     1      -7.286   2.144 -31.525  1.00  0.00    -0.259 OA
BRANCH   2   4
ATOM      4  C   UNL     1      -8.298  -0.200 -32.360  1.00  0.00     0.131 C 
BRANCH   4   5
ATOM      5  C   UNL     1      -9.212   0.166 -33.489  1.00  0.00    -0.021 C 
ATOM      6  C   UNL     1     -10.244   1.014 -33.393  1.00  0.00     0.005 C 
ENDBRANCH   4   5
ENDBRANCH   2   4
ENDBRANCH   1   2
BRANCH   1   7
ATOM      7  C   UNL     1      -4.444   0.561 -30.986  1.00  0.00     0.174 C 
BRANCH   7   8
ATOM      8  C   UNL     1      -3.307  -0.471 -31.073  1.00  0.00     0.321 C 
ATOM      9  O   UNL     1      -3.409  -1.665 -30.842  1.00  0.00    -0.251 OA
BRANCH   8  10
ATOM     10  O   UNL     1      -2.148   0.084 -31.513  1.00  0.00    -0.480 OA
ATOM     11  H   UNL     1      -1.644  -0.486 -32.124  1.00  0.00     0.296 HD
ENDBRANCH   8  10
ENDBRANCH   7   8
BRANCH   7  12
ATOM     12  N   UNL     1      -4.191   1.639 -31.974  1.00  0.00    -0.318 NA
ATOM     13  H   UNL     1      -4.867   1.549 -32.738  1.00  0.00     0.119 HD
ATOM     14  H   UNL     1      -3.283   1.520 -32.424  1.00  0.00     0.119 HD
ENDBRANCH   7  12
ENDBRANCH   1   7
TORSDOF 7
ENDMDL
MODEL 9
REMARK VINA RESULT:      -4.5     11.777     12.751
REMARK SMILES C=CC[S@@](=O)C[C@H](N)C(=O)O
REMARK SMILES IDX 6 1 4 2 5 3 3 4 2 5 1 6 7 7 9 8 10 9 11 10 8 12
REMARK H PARENT 11 11 8 13 8 14
ROOT
ATOM      1  C   UNL     1      -8.538   1.233 -31.530  1.00  0.00     0.136 C 
ENDROOT
BRANCH   1   2
ATOM      2  S   UNL     1      -6.847   0.760 -31.023  1.00  0.00     0.027 S 
ATOM      3  O   UNL     1      -5.942   1.055 -32.185  1.00  0.00    -0.259 OA
BRANCH   2   4
ATOM      4  C   UNL     1      -7.128  -1.047 -31.006  1.00  0.00     0.131 C 
BRANCH   4   5
ATOM      5  C   UNL     1      -6.354  -1.674 -29.887  1.00  0.00    -0.021 C 
ATOM      6  C   UNL     1      -5.017  -1.735 -29.822  1.00  0.00     0.005 C 
ENDBRANCH   4   5
ENDBRANCH   2   4
ENDBRANCH   1   2
BRANCH   1   7
ATOM      7  C   UNL     1      -9.062   0.360 -32.676  1.00  0.00     0.174 C 
BRANCH   7   8
ATOM      8  C   UNL     1     -10.561   0.590 -32.930  1.00  0.00     0.321 C 
ATOM      9  O   UNL     1     -11.412  -0.281 -33.004  1.00  0.00    -0.251 OA
BRANCH   8  10
ATOM     10  O   UNL     1     -10.869   1.911 -32.999  1.00  0.00    -0.480 OA
ATOM     11  H   UNL     1     -10.858   2.271 -33.907  1.00  0.00     0.296 HD
ENDBRANCH   8  10
ENDBRANCH   7   8
BRANCH   7  12
ATOM     12  N   UNL     1      -8.314   0.639 -33.927  1.00  0.00    -0.318 NA
ATOM     13  H   UNL     1      -7.786  -0.199 -34.188  1.00  0.00     0.119 HD
ATOM     14  H   UNL     1      -7.600   1.352 -33.777  1.00  0.00     0.119 HD
ENDBRANCH   7  12
ENDBRANCH   1   7
TORSDOF 7
ENDMDL
MODEL 10
REMARK VINA RESULT:      -4.5     16.635     18.204
REMARK SMILES C=CC[S@@](=O)C[C@H](N)C(=O)O
REMARK SMILES IDX 6 1 4 2 5 3 3 4 2 5 1 6 7 7 9 8 10 9 11 10 8 12
REMARK H PARENT 11 11 8 13 8 14
ROOT
ATOM      1  C   UNL     1       7.400   0.141 -17.106  1.00  0.00     0.136 C 
ENDROOT
BRANCH   1   2
ATOM      2  S   UNL     1       8.955  -0.758 -16.771  1.00  0.00     0.027 S 
ATOM      3  O   UNL     1       8.717  -1.607 -15.554  1.00  0.00    -0.259 OA
BRANCH   2   4
ATOM      4  C   UNL     1       9.929   0.693 -16.231  1.00  0.00     0.131 C 
BRANCH   4   5
ATOM      5  C   UNL     1      11.258   0.249 -15.702  1.00  0.00    -0.021 C 
ATOM      6  C   UNL     1      12.419   0.879 -15.923  1.00  0.00     0.005 C 
ENDBRANCH   4   5
ENDBRANCH   2   4
ENDBRANCH   1   2
BRANCH   1   7
ATOM      7  C   UNL     1       6.249  -0.807 -17.456  1.00  0.00     0.174 C 
BRANCH   7   8
ATOM      8  C   UNL     1       6.550  -1.629 -18.720  1.00  0.00     0.321 C 
ATOM      9  O   UNL     1       6.908  -1.177 -19.795  1.00  0.00    -0.251 OA
BRANCH   8  10
ATOM     10  O   UNL     1       6.439  -2.964 -18.497  1.00  0.00    -0.480 OA
ATOM     11  H   UNL     1       6.556  -3.510 -19.299  1.00  0.00     0.296 HD
ENDBRANCH   8  10
ENDBRANCH   7   8
BRANCH   7  12
ATOM     12  N   UNL     1       5.979  -1.736 -16.331  1.00  0.00    -0.318 NA
ATOM     13  H   UNL     1       5.079  -1.488 -15.909  1.00  0.00     0.119 HD
ATOM     14  H   UNL     1       6.656  -1.608 -15.578  1.00  0.00     0.119 HD
ENDBRANCH   7  12
ENDBRANCH   1   7
TORSDOF 7
ENDMDL
