MODEL 1
REMARK VINA RESULT:      -5.9      0.000      0.000
REMARK SMILES C/C=C/[S@@](=O)C[C@H](N)C(=O)O
REMARK SMILES IDX 6 1 4 2 5 3 3 4 2 5 1 6 7 7 9 8 10 9 11 10 8 12
REMARK H PARENT 11 11 8 13 8 14
ROOT
ATOM      1  C   UNL     1      -3.788 -10.575 -27.053  1.00  0.00     0.140 C 
ENDROOT
BRANCH   1   2
ATOM      2  S   UNL     1      -2.862  -9.014 -27.302  1.00  0.00     0.047 S 
ATOM      3  O   UNL     1      -2.986  -8.683 -28.761  1.00  0.00    -0.255 OA
BRANCH   2   4
ATOM      4  C   UNL     1      -1.214  -9.687 -27.143  1.00  0.00     0.070 C 
ATOM      5  C   UNL     1      -0.797 -10.066 -25.926  1.00  0.00    -0.021 C 
ATOM      6  C   UNL     1       0.569 -10.611 -25.655  1.00  0.00     0.036 C 
ENDBRANCH   2   4
ENDBRANCH   1   2
BRANCH   1   7
ATOM      7  C   UNL     1      -5.303 -10.387 -27.152  1.00  0.00     0.175 C 
BRANCH   7   8
ATOM      8  C   UNL     1      -6.026 -11.394 -26.249  1.00  0.00     0.321 C 
ATOM      9  O   UNL     1      -6.027 -11.339 -25.029  1.00  0.00    -0.251 OA
BRANCH   8  10
ATOM     10  O   UNL     1      -6.726 -12.330 -26.930  1.00  0.00    -0.480 OA
ATOM     11  H   UNL     1      -6.595 -12.324 -27.897  1.00  0.00     0.296 HD
ENDBRANCH   8  10
ENDBRANCH   7   8
BRANCH   7  12
ATOM     12  N   UNL     1      -5.694  -9.014 -26.751  1.00  0.00    -0.318 NA
ATOM     13  H   UNL     1      -4.849  -8.510 -26.461  1.00  0.00     0.119 HD
ATOM     14  H   UNL     1      -6.271  -9.050 -25.909  1.00  0.00     0.119 HD
ENDBRANCH   7  12
ENDBRANCH   1   7
TORSDOF 6
ENDMDL
MODEL 2
REMARK VINA RESULT:      -5.7      3.175      5.184
REMARK SMILES C/C=C/[S@@](=O)C[C@H](N)C(=O)O
REMARK SMILES IDX 6 1 4 2 5 3 3 4 2 5 1 6 7 7 9 8 10 9 11 10 8 12
REMARK H PARENT 11 11 8 13 8 14
ROOT
ATOM      1  C   UNL     1      -1.440  -9.241 -26.338  1.00  0.00     0.140 C 
ENDROOT
BRANCH   1   2
ATOM      2  S   UNL     1      -2.147  -9.675 -27.971  1.00  0.00     0.047 S 
ATOM      3  O   UNL     1      -2.795  -8.426 -28.492  1.00  0.00    -0.255 OA
BRANCH   2   4
ATOM      4  C   UNL     1      -3.513 -10.666 -27.382  1.00  0.00     0.070 C 
ATOM      5  C   UNL     1      -4.622 -10.037 -26.964  1.00  0.00    -0.021 C 
ATOM      6  C   UNL     1      -5.817 -10.748 -26.418  1.00  0.00     0.036 C 
ENDBRANCH   2   4
ENDBRANCH   1   2
BRANCH   1   7
ATOM      7  C   UNL     1       0.077  -9.435 -26.280  1.00  0.00     0.175 C 
BRANCH   7   8
ATOM      8  C   UNL     1       0.415 -10.881 -25.895  1.00  0.00     0.321 C 
ATOM      9  O   UNL     1       0.148 -11.852 -26.587  1.00  0.00    -0.251 OA
BRANCH   8  10
ATOM     10  O   UNL     1       1.101 -10.989 -24.734  1.00  0.00    -0.480 OA
ATOM     11  H   UNL     1       1.984 -11.398 -24.811  1.00  0.00     0.296 HD
ENDBRANCH   8  10
ENDBRANCH   7   8
BRANCH   7  12
ATOM     12  N   UNL     1       0.701  -9.127 -27.588  1.00  0.00    -0.318 NA
ATOM     13  H   UNL     1       0.175  -9.616 -28.321  1.00  0.00     0.119 HD
ATOM     14  H   UNL     1       1.637  -9.534 -27.631  1.00  0.00     0.119 HD
ENDBRANCH   7  12
ENDBRANCH   1   7
TORSDOF 6
ENDMDL
MODEL 3
REMARK VINA RESULT:      -5.6     14.030     15.740
REMARK SMILES C/C=C/[S@@](=O)C[C@H](N)C(=O)O
REMARK SMILES IDX 6 1 4 2 5 3 3 4 2 5 1 6 7 7 9 8 10 9 11 10 8 12
REMARK H PARENT 11 11 8 13 8 14
ROOT
ATOM      1  C   UNL     1       6.493  -1.274 -19.630  1.00  0.00     0.140 C 
ENDROOT
BRANCH   1   2
ATOM      2  S   UNL     1       6.494  -3.075 -19.962  1.00  0.00     0.047 S 
ATOM      3  O   UNL     1       7.803  -3.376 -20.632  1.00  0.00    -0.255 OA
BRANCH   2   4
ATOM      4  C   UNL     1       5.306  -3.071 -21.298  1.00  0.00     0.070 C 
ATOM      5  C   UNL     1       5.434  -2.145 -22.259  1.00  0.00    -0.021 C 
ATOM      6  C   UNL     1       4.488  -2.014 -23.409  1.00  0.00     0.036 C 
ENDBRANCH   2   4
ENDBRANCH   1   2
BRANCH   1   7
ATOM      7  C   UNL     1       7.494  -0.871 -18.544  1.00  0.00     0.175 C 
BRANCH   7   8
ATOM      8  C   UNL     1       7.002  -1.336 -17.168  1.00  0.00     0.321 C 
ATOM      9  O   UNL     1       5.825  -1.466 -16.871  1.00  0.00    -0.251 OA
BRANCH   8  10
ATOM     10  O   UNL     1       8.002  -1.656 -16.313  1.00  0.00    -0.480 OA
ATOM     11  H   UNL     1       8.811  -2.002 -16.733  1.00  0.00     0.296 HD
ENDBRANCH   8  10
ENDBRANCH   7   8
BRANCH   7  12
ATOM     12  N   UNL     1       8.826  -1.466 -18.806  1.00  0.00    -0.318 NA
ATOM     13  H   UNL     1       9.499  -1.053 -18.151  1.00  0.00     0.119 HD
ATOM     14  H   UNL     1       9.159  -1.180 -19.728  1.00  0.00     0.119 HD
ENDBRANCH   7  12
ENDBRANCH   1   7
TORSDOF 6
ENDMDL
MODEL 4
REMARK VINA RESULT:      -5.4      2.108      2.497
REMARK SMILES C/C=C/[S@@](=O)C[C@H](N)C(=O)O
REMARK SMILES IDX 6 1 4 2 5 3 3 4 2 5 1 6 7 7 9 8 10 9 11 10 8 12
REMARK H PARENT 11 11 8 13 8 14
ROOT
ATOM      1  C   UNL     1      -1.968 -10.549 -27.379  1.00  0.00     0.140 C 
ENDROOT
BRANCH   1   2
ATOM      2  S   UNL     1      -1.008  -9.326 -26.410  1.00  0.00     0.047 S 
ATOM      3  O   UNL     1      -0.197  -8.547 -27.404  1.00  0.00    -0.255 OA
BRANCH   2   4
ATOM      4  C   UNL     1       0.162 -10.464 -25.683  1.00  0.00     0.070 C 
ATOM      5  C   UNL     1       0.106 -11.753 -26.048  1.00  0.00    -0.021 C 
ATOM      6  C   UNL     1       1.004 -12.809 -25.488  1.00  0.00     0.036 C 
ENDBRANCH   2   4
ENDBRANCH   1   2
BRANCH   1   7
ATOM      7  C   UNL     1      -3.147  -9.919 -28.124  1.00  0.00     0.175 C 
BRANCH   7   8
ATOM      8  C   UNL     1      -4.398  -9.916 -27.236  1.00  0.00     0.321 C 
ATOM      9  O   UNL     1      -4.883  -8.909 -26.743  1.00  0.00    -0.251 OA
BRANCH   8  10
ATOM     10  O   UNL     1      -4.966 -11.136 -27.093  1.00  0.00    -0.480 OA
ATOM     11  H   UNL     1      -5.052 -11.652 -27.916  1.00  0.00     0.296 HD
ENDBRANCH   8  10
ENDBRANCH   7   8
BRANCH   7  12
ATOM     12  N   UNL     1      -2.838  -8.527 -28.526  1.00  0.00    -0.318 NA
ATOM     13  H   UNL     1      -3.543  -7.907 -28.113  1.00  0.00     0.119 HD
ATOM     14  H   UNL     1      -2.963  -8.420 -29.533  1.00  0.00     0.119 HD
ENDBRANCH   7  12
ENDBRANCH   1   7
TORSDOF 6
ENDMDL
MODEL 5
REMARK VINA RESULT:      -5.3      4.099      5.553
REMARK SMILES C/C=C/[S@@](=O)C[C@H](N)C(=O)O
REMARK SMILES IDX 6 1 4 2 5 3 3 4 2 5 1 6 7 7 9 8 10 9 11 10 8 12
REMARK H PARENT 11 11 8 13 8 14
ROOT
ATOM      1  C   UNL     1       0.082 -11.217 -26.914  1.00  0.00     0.140 C 
ENDROOT
BRANCH   1   2
ATOM      2  S   UNL     1      -0.652  -9.565 -27.211  1.00  0.00     0.047 S 
ATOM      3  O   UNL     1      -0.815  -8.931 -25.860  1.00  0.00    -0.255 OA
BRANCH   2   4
ATOM      4  C   UNL     1      -2.299 -10.111 -27.642  1.00  0.00     0.070 C 
ATOM      5  C   UNL     1      -3.342  -9.397 -27.197  1.00  0.00    -0.021 C 
ATOM      6  C   UNL     1      -4.766  -9.767 -27.459  1.00  0.00     0.036 C 
ENDBRANCH   2   4
ENDBRANCH   1   2
BRANCH   1   7
ATOM      7  C   UNL     1       0.323 -11.499 -25.429  1.00  0.00     0.175 C 
BRANCH   7   8
ATOM      8  C   UNL     1       0.876 -12.917 -25.239  1.00  0.00     0.321 C 
ATOM      9  O   UNL     1       0.606 -13.633 -24.287  1.00  0.00    -0.251 OA
BRANCH   8  10
ATOM     10  O   UNL     1       1.652 -13.340 -26.264  1.00  0.00    -0.480 OA
ATOM     11  H   UNL     1       1.588 -14.292 -26.466  1.00  0.00     0.296 HD
ENDBRANCH   8  10
ENDBRANCH   7   8
BRANCH   7  12
ATOM     12  N   UNL     1       1.282 -10.527 -24.854  1.00  0.00    -0.318 NA
ATOM     13  H   UNL     1       1.482  -9.811 -25.562  1.00  0.00     0.119 HD
ATOM     14  H   UNL     1       2.182 -10.982 -24.691  1.00  0.00     0.119 HD
ENDBRANCH   7  12
ENDBRANCH   1   7
TORSDOF 6
ENDMDL
MODEL 6
REMARK VINA RESULT:      -5.2     12.441     13.421
REMARK SMILES C/C=C/[S@@](=O)C[C@H](N)C(=O)O
REMARK SMILES IDX 6 1 4 2 5 3 3 4 2 5 1 6 7 7 9 8 10 9 11 10 8 12
REMARK H PARENT 11 11 8 13 8 14
ROOT
ATOM      1  C   UNL     1       5.302  -0.740 -24.696  1.00  0.00     0.140 C 
ENDROOT
BRANCH   1   2
ATOM      2  S   UNL     1       4.505  -2.144 -23.829  1.00  0.00     0.047 S 
ATOM      3  O   UNL     1       3.076  -1.743 -23.609  1.00  0.00    -0.255 OA
BRANCH   2   4
ATOM      4  C   UNL     1       5.279  -1.910 -22.235  1.00  0.00     0.070 C 
ATOM      5  C   UNL     1       5.605  -2.997 -21.521  1.00  0.00    -0.021 C 
ATOM      6  C   UNL     1       6.224  -2.935 -20.162  1.00  0.00     0.036 C 
ENDBRANCH   2   4
ENDBRANCH   1   2
BRANCH   1   7
ATOM      7  C   UNL     1       4.674  -0.455 -26.062  1.00  0.00     0.175 C 
BRANCH   7   8
ATOM      8  C   UNL     1       5.760  -0.087 -27.081  1.00  0.00     0.321 C 
ATOM      9  O   UNL     1       6.919   0.161 -26.784  1.00  0.00    -0.251 OA
BRANCH   8  10
ATOM     10  O   UNL     1       5.336  -0.123 -28.365  1.00  0.00    -0.480 OA
ATOM     11  H   UNL     1       6.019   0.074 -29.033  1.00  0.00     0.296 HD
ENDBRANCH   8  10
ENDBRANCH   7   8
BRANCH   7  12
ATOM     12  N   UNL     1       3.928  -1.636 -26.559  1.00  0.00    -0.318 NA
ATOM     13  H   UNL     1       4.600  -2.295 -26.967  1.00  0.00     0.119 HD
ATOM     14  H   UNL     1       3.330  -1.364 -27.341  1.00  0.00     0.119 HD
ENDBRANCH   7  12
ENDBRANCH   1   7
TORSDOF 6
ENDMDL
MODEL 7
REMARK VINA RESULT:      -4.8     11.884     13.157
REMARK SMILES C/C=C/[S@@](=O)C[C@H](N)C(=O)O
REMARK SMILES IDX 6 1 4 2 5 3 3 4 2 5 1 6 7 7 9 8 10 9 11 10 8 12
REMARK H PARENT 11 11 8 13 8 14
ROOT
ATOM      1  C   UNL     1      -8.529  -0.601 -32.320  1.00  0.00     0.140 C 
ENDROOT
BRANCH   1   2
ATOM      2  S   UNL     1      -7.207   0.028 -31.219  1.00  0.00     0.047 S 
ATOM      3  O   UNL     1      -6.246  -1.109 -31.028  1.00  0.00    -0.255 OA
BRANCH   2   4
ATOM      4  C   UNL     1      -8.155   0.061 -29.704  1.00  0.00     0.070 C 
ATOM      5  C   UNL     1      -9.285  -0.659 -29.645  1.00  0.00    -0.021 C 
ATOM      6  C   UNL     1     -10.182  -0.687 -28.450  1.00  0.00     0.036 C 
ENDBRANCH   2   4
ENDBRANCH   1   2
BRANCH   1   7
ATOM      7  C   UNL     1      -9.047   0.464 -33.290  1.00  0.00     0.175 C 
BRANCH   7   8
ATOM      8  C   UNL     1     -10.554   0.671 -33.099  1.00  0.00     0.321 C 
ATOM      9  O   UNL     1     -11.357  -0.239 -32.959  1.00  0.00    -0.251 OA
BRANCH   8  10
ATOM     10  O   UNL     1     -10.920   1.972 -33.033  1.00  0.00    -0.480 OA
ATOM     11  H   UNL     1     -11.345   2.324 -33.838  1.00  0.00     0.296 HD
ENDBRANCH   8  10
ENDBRANCH   7   8
BRANCH   7  12
ATOM     12  N   UNL     1      -8.352   1.756 -33.079  1.00  0.00    -0.318 NA
ATOM     13  H   UNL     1      -8.849   2.480 -33.609  1.00  0.00     0.119 HD
ATOM     14  H   UNL     1      -7.423   1.723 -33.501  1.00  0.00     0.119 HD
ENDBRANCH   7  12
ENDBRANCH   1   7
TORSDOF 6
ENDMDL
MODEL 8
REMARK VINA RESULT:      -4.7     11.292     12.993
REMARK SMILES C/C=C/[S@@](=O)C[C@H](N)C(=O)O
REMARK SMILES IDX 6 1 4 2 5 3 3 4 2 5 1 6 7 7 9 8 10 9 11 10 8 12
REMARK H PARENT 11 11 8 13 8 14
ROOT
ATOM      1  C   UNL     1      -5.761  -0.069 -30.969  1.00  0.00     0.140 C 
ENDROOT
BRANCH   1   2
ATOM      2  S   UNL     1      -6.460   1.106 -32.188  1.00  0.00     0.047 S 
ATOM      3  O   UNL     1      -6.955   2.283 -31.399  1.00  0.00    -0.255 OA
BRANCH   2   4
ATOM      4  C   UNL     1      -7.942   0.186 -32.582  1.00  0.00     0.070 C 
ATOM      5  C   UNL     1      -8.871   0.776 -33.349  1.00  0.00    -0.021 C 
ATOM      6  C   UNL     1     -10.165   0.128 -33.720  1.00  0.00     0.036 C 
ENDBRANCH   2   4
ENDBRANCH   1   2
BRANCH   1   7
ATOM      7  C   UNL     1      -4.395   0.372 -30.438  1.00  0.00     0.175 C 
BRANCH   7   8
ATOM      8  C   UNL     1      -3.294  -0.556 -30.964  1.00  0.00     0.321 C 
ATOM      9  O   UNL     1      -3.372  -1.775 -30.970  1.00  0.00    -0.251 OA
BRANCH   8  10
ATOM     10  O   UNL     1      -2.234   0.102 -31.490  1.00  0.00    -0.480 OA
ATOM     11  H   UNL     1      -2.453   0.756 -32.180  1.00  0.00     0.296 HD
ENDBRANCH   8  10
ENDBRANCH   7   8
BRANCH   7  12
ATOM     12  N   UNL     1      -4.091   1.763 -30.850  1.00  0.00    -0.318 NA
ATOM     13  H   UNL     1      -3.163   1.775 -31.286  1.00  0.00     0.119 HD
ATOM     14  H   UNL     1      -3.993   2.356 -30.024  1.00  0.00     0.119 HD
ENDBRANCH   7  12
ENDBRANCH   1   7
TORSDOF 6
ENDMDL
MODEL 9
REMARK VINA RESULT:      -4.7     11.321     12.624
REMARK SMILES C/C=C/[S@@](=O)C[C@H](N)C(=O)O
REMARK SMILES IDX 6 1 4 2 5 3 3 4 2 5 1 6 7 7 9 8 10 9 11 10 8 12
REMARK H PARENT 11 11 8 13 8 14
ROOT
ATOM      1  C   UNL     1      -8.962   0.454 -31.113  1.00  0.00     0.140 C 
ENDROOT
BRANCH   1   2
ATOM      2  S   UNL     1      -7.634  -0.633 -30.474  1.00  0.00     0.047 S 
ATOM      3  O   UNL     1      -6.584  -0.685 -31.545  1.00  0.00    -0.255 OA
BRANCH   2   4
ATOM      4  C   UNL     1      -8.502  -2.188 -30.632  1.00  0.00     0.070 C 
ATOM      5  C   UNL     1      -8.007  -3.260 -29.997  1.00  0.00    -0.021 C 
ATOM      6  C   UNL     1      -8.619  -4.621 -30.078  1.00  0.00     0.036 C 
ENDBRANCH   2   4
ENDBRANCH   1   2
BRANCH   1   7
ATOM      7  C   UNL     1      -8.941   0.580 -32.639  1.00  0.00     0.175 C 
BRANCH   7   8
ATOM      8  C   UNL     1     -10.365   0.759 -33.179  1.00  0.00     0.321 C 
ATOM      9  O   UNL     1     -11.025  -0.141 -33.676  1.00  0.00    -0.251 OA
BRANCH   8  10
ATOM     10  O   UNL     1     -10.863   2.004 -32.998  1.00  0.00    -0.480 OA
ATOM     11  H   UNL     1     -11.755   2.151 -33.366  1.00  0.00     0.296 HD
ENDBRANCH   8  10
ENDBRANCH   7   8
BRANCH   7  12
ATOM     12  N   UNL     1      -8.116   1.736 -33.063  1.00  0.00    -0.318 NA
ATOM     13  H   UNL     1      -7.530   1.443 -33.852  1.00  0.00     0.119 HD
ATOM     14  H   UNL     1      -7.451   1.977 -32.327  1.00  0.00     0.119 HD
ENDBRANCH   7  12
ENDBRANCH   1   7
TORSDOF 6
ENDMDL
MODEL 10
REMARK VINA RESULT:      -4.7      4.646      6.226
REMARK SMILES C/C=C/[S@@](=O)C[C@H](N)C(=O)O
REMARK SMILES IDX 6 1 4 2 5 3 3 4 2 5 1 6 7 7 9 8 10 9 11 10 8 12
REMARK H PARENT 11 11 8 13 8 14
ROOT
ATOM      1  C   UNL     1      -0.006 -11.163 -25.272  1.00  0.00     0.140 C 
ENDROOT
BRANCH   1   2
ATOM      2  S   UNL     1       0.232 -10.665 -27.019  1.00  0.00     0.047 S 
ATOM      3  O   UNL     1       0.654  -9.224 -26.989  1.00  0.00    -0.255 OA
BRANCH   2   4
ATOM      4  C   UNL     1      -1.492 -10.609 -27.488  1.00  0.00     0.070 C 
ATOM      5  C   UNL     1      -2.035  -9.416 -27.771  1.00  0.00    -0.021 C 
ATOM      6  C   UNL     1      -3.471  -9.232 -28.142  1.00  0.00     0.036 C 
ENDBRANCH   2   4
ENDBRANCH   1   2
BRANCH   1   7
ATOM      7  C   UNL     1       1.092 -12.104 -24.770  1.00  0.00     0.175 C 
BRANCH   7   8
ATOM      8  C   UNL     1       1.847 -11.463 -23.599  1.00  0.00     0.321 C 
ATOM      9  O   UNL     1       2.361 -10.356 -23.641  1.00  0.00    -0.251 OA
BRANCH   8  10
ATOM     10  O   UNL     1       1.842 -12.215 -22.473  1.00  0.00    -0.480 OA
ATOM     11  H   UNL     1       2.470 -11.930 -21.782  1.00  0.00     0.296 HD
ENDBRANCH   8  10
ENDBRANCH   7   8
BRANCH   7  12
ATOM     12  N   UNL     1       0.519 -13.396 -24.325  1.00  0.00    -0.318 NA
ATOM     13  H   UNL     1       1.289 -14.058 -24.180  1.00  0.00     0.119 HD
ATOM     14  H   UNL     1      -0.034 -13.808 -25.078  1.00  0.00     0.119 HD
ENDBRANCH   7  12
ENDBRANCH   1   7
TORSDOF 6
ENDMDL
