MODEL 1
REMARK VINA RESULT:      -6.3      0.000      0.000
REMARK SMILES CC(=O)/C=C/c1ccccc1O
REMARK SMILES IDX 6 1 7 2 8 3 9 4 10 5 11 6 5 7 4 8 2 9 3 10 1 11 12 12
REMARK H PARENT 12 13
ROOT
ATOM      1  C   UNL     1       4.595  -0.949 -24.908  1.00  0.00     0.016 A 
ATOM      2  C   UNL     1       5.633  -1.385 -24.070  1.00  0.00     0.012 A 
ATOM      3  C   UNL     1       5.363  -2.138 -22.925  1.00  0.00     0.001 A 
ATOM      4  C   UNL     1       4.051  -2.477 -22.607  1.00  0.00     0.004 A 
ATOM      5  C   UNL     1       3.006  -2.068 -23.434  1.00  0.00     0.047 A 
ATOM      6  C   UNL     1       3.279  -1.315 -24.580  1.00  0.00     0.122 A 
ENDROOT
BRANCH   1   7
ATOM      7  C   UNL     1       4.970  -0.184 -26.108  1.00  0.00     0.015 C 
ATOM      8  C   UNL     1       6.214   0.248 -26.361  1.00  0.00     0.047 C 
BRANCH   8   9
ATOM      9  C   UNL     1       6.510   1.004 -27.608  1.00  0.00     0.152 C 
ATOM     10  O   UNL     1       7.162   2.046 -27.594  1.00  0.00    -0.295 OA
ATOM     11  C   UNL     1       5.935   0.455 -28.886  1.00  0.00     0.093 C 
ENDBRANCH   8   9
ENDBRANCH   1   7
BRANCH   6  12
ATOM     12  O   UNL     1       2.242  -0.945 -25.396  1.00  0.00    -0.507 OA
ATOM     13  H   UNL     1       1.515  -1.580 -25.282  1.00  0.00     0.293 HD
ENDBRANCH   6  12
TORSDOF 3
ENDMDL
MODEL 2
REMARK VINA RESULT:      -6.3      5.211      7.110
REMARK SMILES CC(=O)/C=C/c1ccccc1O
REMARK SMILES IDX 6 1 7 2 8 3 9 4 10 5 11 6 5 7 4 8 2 9 3 10 1 11 12 12
REMARK H PARENT 12 13
ROOT
ATOM      1  C   UNL     1       6.988  -1.423 -18.942  1.00  0.00     0.016 A 
ATOM      2  C   UNL     1       6.251  -0.628 -18.050  1.00  0.00     0.012 A 
ATOM      3  C   UNL     1       6.887   0.094 -17.038  1.00  0.00     0.001 A 
ATOM      4  C   UNL     1       8.273   0.041 -16.910  1.00  0.00     0.004 A 
ATOM      5  C   UNL     1       9.025  -0.729 -17.795  1.00  0.00     0.047 A 
ATOM      6  C   UNL     1       8.386  -1.450 -18.808  1.00  0.00     0.122 A 
ENDROOT
BRANCH   1   7
ATOM      7  C   UNL     1       6.240  -2.128 -19.996  1.00  0.00     0.015 C 
ATOM      8  C   UNL     1       5.918  -1.582 -21.177  1.00  0.00     0.047 C 
BRANCH   8   9
ATOM      9  C   UNL     1       5.170  -2.373 -22.193  1.00  0.00     0.152 C 
ATOM     10  O   UNL     1       4.679  -3.468 -21.928  1.00  0.00    -0.295 OA
ATOM     11  C   UNL     1       5.079  -1.785 -23.575  1.00  0.00     0.093 C 
ENDBRANCH   8   9
ENDBRANCH   1   7
BRANCH   6  12
ATOM     12  O   UNL     1       9.144  -2.180 -19.685  1.00  0.00    -0.507 OA
ATOM     13  H   UNL     1       9.662  -1.567 -20.233  1.00  0.00     0.293 HD
ENDBRANCH   6  12
TORSDOF 3
ENDMDL
MODEL 3
REMARK VINA RESULT:      -6.1      8.230     10.453
REMARK SMILES CC(=O)/C=C/c1ccccc1O
REMARK SMILES IDX 6 1 7 2 8 3 9 4 10 5 11 6 5 7 4 8 2 9 3 10 1 11 12 12
REMARK H PARENT 12 13
ROOT
ATOM      1  C   UNL     1      -3.547  -0.285 -28.085  1.00  0.00     0.016 A 
ATOM      2  C   UNL     1      -4.258  -1.041 -29.030  1.00  0.00     0.012 A 
ATOM      3  C   UNL     1      -3.794  -1.170 -30.341  1.00  0.00     0.001 A 
ATOM      4  C   UNL     1      -2.605  -0.553 -30.724  1.00  0.00     0.004 A 
ATOM      5  C   UNL     1      -1.876   0.189 -29.797  1.00  0.00     0.047 A 
ATOM      6  C   UNL     1      -2.342   0.316 -28.485  1.00  0.00     0.122 A 
ENDROOT
BRANCH   1   7
ATOM      7  C   UNL     1      -4.093  -0.225 -26.719  1.00  0.00     0.015 C 
ATOM      8  C   UNL     1      -5.026  -1.066 -26.249  1.00  0.00     0.047 C 
BRANCH   8   9
ATOM      9  C   UNL     1      -5.513  -0.943 -24.848  1.00  0.00     0.152 C 
ATOM     10  O   UNL     1      -6.348  -1.715 -24.383  1.00  0.00    -0.295 OA
ATOM     11  C   UNL     1      -4.964   0.201 -24.038  1.00  0.00     0.093 C 
ENDBRANCH   8   9
ENDBRANCH   1   7
BRANCH   6  12
ATOM     12  O   UNL     1      -1.598   1.027 -27.580  1.00  0.00    -0.507 OA
ATOM     13  H   UNL     1      -1.726   0.638 -26.699  1.00  0.00     0.293 HD
ENDBRANCH   6  12
TORSDOF 3
ENDMDL
MODEL 4
REMARK VINA RESULT:      -6.0      5.462      7.291
REMARK SMILES CC(=O)/C=C/c1ccccc1O
REMARK SMILES IDX 6 1 7 2 8 3 9 4 10 5 11 6 5 7 4 8 2 9 3 10 1 11 12 12
REMARK H PARENT 12 13
ROOT
ATOM      1  C   UNL     1       6.986  -1.294 -18.529  1.00  0.00     0.016 A 
ATOM      2  C   UNL     1       8.045  -0.405 -18.770  1.00  0.00     0.012 A 
ATOM      3  C   UNL     1       8.674   0.263 -17.717  1.00  0.00     0.001 A 
ATOM      4  C   UNL     1       8.261   0.043 -16.405  1.00  0.00     0.004 A 
ATOM      5  C   UNL     1       7.222  -0.848 -16.143  1.00  0.00     0.047 A 
ATOM      6  C   UNL     1       6.594  -1.516 -17.198  1.00  0.00     0.122 A 
ENDROOT
BRANCH   1   7
ATOM      7  C   UNL     1       6.398  -1.977 -19.693  1.00  0.00     0.015 C 
ATOM      8  C   UNL     1       6.122  -1.369 -20.856  1.00  0.00     0.047 C 
BRANCH   8   9
ATOM      9  C   UNL     1       5.540  -2.139 -21.989  1.00  0.00     0.152 C 
ATOM     10  O   UNL     1       5.591  -1.727 -23.146  1.00  0.00    -0.295 OA
ATOM     11  C   UNL     1       4.847  -3.429 -21.645  1.00  0.00     0.093 C 
ENDBRANCH   8   9
ENDBRANCH   1   7
BRANCH   6  12
ATOM     12  O   UNL     1       5.592  -2.408 -16.919  1.00  0.00    -0.507 OA
ATOM     13  H   UNL     1       4.740  -1.945 -16.972  1.00  0.00     0.293 HD
ENDBRANCH   6  12
TORSDOF 3
ENDMDL
MODEL 5
REMARK VINA RESULT:      -5.8     10.275     11.686
REMARK SMILES CC(=O)/C=C/c1ccccc1O
REMARK SMILES IDX 6 1 7 2 8 3 9 4 10 5 11 6 5 7 4 8 2 9 3 10 1 11 12 12
REMARK H PARENT 12 13
ROOT
ATOM      1  C   UNL     1      -4.321  -0.140 -30.034  1.00  0.00     0.016 A 
ATOM      2  C   UNL     1      -4.453   0.365 -28.731  1.00  0.00     0.012 A 
ATOM      3  C   UNL     1      -3.329   0.689 -27.969  1.00  0.00     0.001 A 
ATOM      4  C   UNL     1      -2.053   0.524 -28.504  1.00  0.00     0.004 A 
ATOM      5  C   UNL     1      -1.900   0.040 -29.802  1.00  0.00     0.047 A 
ATOM      6  C   UNL     1      -3.027  -0.283 -30.563  1.00  0.00     0.122 A 
ENDROOT
BRANCH   1   7
ATOM      7  C   UNL     1      -5.559  -0.429 -30.776  1.00  0.00     0.015 C 
ATOM      8  C   UNL     1      -6.214   0.475 -31.519  1.00  0.00     0.047 C 
BRANCH   8   9
ATOM      9  C   UNL     1      -7.454   0.094 -32.249  1.00  0.00     0.152 C 
ATOM     10  O   UNL     1      -8.133  -0.873 -31.910  1.00  0.00    -0.295 OA
ATOM     11  C   UNL     1      -7.815   0.925 -33.450  1.00  0.00     0.093 C 
ENDBRANCH   8   9
ENDBRANCH   1   7
BRANCH   6  12
ATOM     12  O   UNL     1      -2.858  -0.733 -31.846  1.00  0.00    -0.507 OA
ATOM     13  H   UNL     1      -2.260  -1.498 -31.830  1.00  0.00     0.293 HD
ENDBRANCH   6  12
TORSDOF 3
ENDMDL
MODEL 6
REMARK VINA RESULT:      -5.7     14.874     16.319
REMARK SMILES CC(=O)/C=C/c1ccccc1O
REMARK SMILES IDX 6 1 7 2 8 3 9 4 10 5 11 6 5 7 4 8 2 9 3 10 1 11 12 12
REMARK H PARENT 12 13
ROOT
ATOM      1  C   UNL     1      -9.228  -0.792 -31.944  1.00  0.00     0.016 A 
ATOM      2  C   UNL     1      -7.888  -0.481 -31.667  1.00  0.00     0.012 A 
ATOM      3  C   UNL     1      -7.288   0.658 -32.210  1.00  0.00     0.001 A 
ATOM      4  C   UNL     1      -8.024   1.509 -33.030  1.00  0.00     0.004 A 
ATOM      5  C   UNL     1      -9.361   1.228 -33.304  1.00  0.00     0.047 A 
ATOM      6  C   UNL     1      -9.960   0.089 -32.759  1.00  0.00     0.122 A 
ENDROOT
BRANCH   1   7
ATOM      7  C   UNL     1      -9.789  -1.995 -31.308  1.00  0.00     0.015 C 
ATOM      8  C   UNL     1      -9.070  -3.086 -31.008  1.00  0.00     0.047 C 
BRANCH   8   9
ATOM      9  C   UNL     1      -9.715  -4.256 -30.351  1.00  0.00     0.152 C 
ATOM     10  O   UNL     1     -10.771  -4.729 -30.765  1.00  0.00    -0.295 OA
ATOM     11  C   UNL     1      -9.033  -4.808 -29.129  1.00  0.00     0.093 C 
ENDBRANCH   8   9
ENDBRANCH   1   7
BRANCH   6  12
ATOM     12  O   UNL     1     -11.283  -0.157 -33.018  1.00  0.00    -0.507 OA
ATOM     13  H   UNL     1     -11.389  -0.310 -33.972  1.00  0.00     0.293 HD
ENDBRANCH   6  12
TORSDOF 3
ENDMDL
MODEL 7
REMARK VINA RESULT:      -5.7      7.349      9.214
REMARK SMILES CC(=O)/C=C/c1ccccc1O
REMARK SMILES IDX 6 1 7 2 8 3 9 4 10 5 11 6 5 7 4 8 2 9 3 10 1 11 12 12
REMARK H PARENT 12 13
ROOT
ATOM      1  C   UNL     1       8.377  -0.129 -16.921  1.00  0.00     0.016 A 
ATOM      2  C   UNL     1       9.515  -0.829 -16.489  1.00  0.00     0.012 A 
ATOM      3  C   UNL     1      10.465  -0.217 -15.668  1.00  0.00     0.001 A 
ATOM      4  C   UNL     1      10.286   1.102 -15.258  1.00  0.00     0.004 A 
ATOM      5  C   UNL     1       9.155   1.810 -15.662  1.00  0.00     0.047 A 
ATOM      6  C   UNL     1       8.205   1.195 -16.483  1.00  0.00     0.122 A 
ENDROOT
BRANCH   1   7
ATOM      7  C   UNL     1       7.413  -0.859 -17.760  1.00  0.00     0.015 C 
ATOM      8  C   UNL     1       7.585  -1.088 -19.070  1.00  0.00     0.047 C 
BRANCH   8   9
ATOM      9  C   UNL     1       6.564  -1.848 -19.842  1.00  0.00     0.152 C 
ATOM     10  O   UNL     1       6.040  -1.385 -20.853  1.00  0.00    -0.295 OA
ATOM     11  C   UNL     1       6.172  -3.197 -19.302  1.00  0.00     0.093 C 
ENDBRANCH   8   9
ENDBRANCH   1   7
BRANCH   6  12
ATOM     12  O   UNL     1       7.087   1.897 -16.848  1.00  0.00    -0.507 OA
ATOM     13  H   UNL     1       7.156   2.123 -17.791  1.00  0.00     0.293 HD
ENDBRANCH   6  12
TORSDOF 3
ENDMDL
MODEL 8
REMARK VINA RESULT:      -5.7      9.277     11.334
REMARK SMILES CC(=O)/C=C/c1ccccc1O
REMARK SMILES IDX 6 1 7 2 8 3 9 4 10 5 11 6 5 7 4 8 2 9 3 10 1 11 12 12
REMARK H PARENT 12 13
ROOT
ATOM      1  C   UNL     1      -4.167  -1.170 -28.467  1.00  0.00     0.016 A 
ATOM      2  C   UNL     1      -4.030  -0.385 -27.311  1.00  0.00     0.012 A 
ATOM      3  C   UNL     1      -3.009   0.562 -27.205  1.00  0.00     0.001 A 
ATOM      4  C   UNL     1      -2.116   0.746 -28.258  1.00  0.00     0.004 A 
ATOM      5  C   UNL     1      -2.245  -0.012 -29.420  1.00  0.00     0.047 A 
ATOM      6  C   UNL     1      -3.268  -0.959 -29.525  1.00  0.00     0.122 A 
ENDROOT
BRANCH   1   7
ATOM      7  C   UNL     1      -5.288  -2.124 -28.506  1.00  0.00     0.015 C 
ATOM      8  C   UNL     1      -6.572  -1.764 -28.647  1.00  0.00     0.047 C 
BRANCH   8   9
ATOM      9  C   UNL     1      -7.643  -2.797 -28.690  1.00  0.00     0.152 C 
ATOM     10  O   UNL     1      -8.363  -3.023 -27.721  1.00  0.00    -0.295 OA
ATOM     11  C   UNL     1      -7.776  -3.582 -29.967  1.00  0.00     0.093 C 
ENDBRANCH   8   9
ENDBRANCH   1   7
BRANCH   6  12
ATOM     12  O   UNL     1      -3.396  -1.676 -30.686  1.00  0.00    -0.507 OA
ATOM     13  H   UNL     1      -2.516  -1.780 -31.084  1.00  0.00     0.293 HD
ENDBRANCH   6  12
TORSDOF 3
ENDMDL
MODEL 9
REMARK VINA RESULT:      -5.7      9.202     11.245
REMARK SMILES CC(=O)/C=C/c1ccccc1O
REMARK SMILES IDX 6 1 7 2 8 3 9 4 10 5 11 6 5 7 4 8 2 9 3 10 1 11 12 12
REMARK H PARENT 12 13
ROOT
ATOM      1  C   UNL     1      -4.286  -0.992 -28.095  1.00  0.00     0.016 A 
ATOM      2  C   UNL     1      -3.330  -1.136 -29.112  1.00  0.00     0.012 A 
ATOM      3  C   UNL     1      -2.227  -0.283 -29.187  1.00  0.00     0.001 A 
ATOM      4  C   UNL     1      -2.057   0.721 -28.236  1.00  0.00     0.004 A 
ATOM      5  C   UNL     1      -2.985   0.871 -27.208  1.00  0.00     0.047 A 
ATOM      6  C   UNL     1      -4.088   0.015 -27.135  1.00  0.00     0.122 A 
ENDROOT
BRANCH   1   7
ATOM      7  C   UNL     1      -5.402  -1.951 -28.075  1.00  0.00     0.015 C 
ATOM      8  C   UNL     1      -6.433  -1.917 -28.931  1.00  0.00     0.047 C 
BRANCH   8   9
ATOM      9  C   UNL     1      -7.515  -2.937 -28.848  1.00  0.00     0.152 C 
ATOM     10  O   UNL     1      -8.103  -3.172 -27.796  1.00  0.00    -0.295 OA
ATOM     11  C   UNL     1      -7.826  -3.698 -30.109  1.00  0.00     0.093 C 
ENDBRANCH   8   9
ENDBRANCH   1   7
BRANCH   6  12
ATOM     12  O   UNL     1      -4.976   0.161 -26.102  1.00  0.00    -0.507 OA
ATOM     13  H   UNL     1      -4.689   0.905 -25.548  1.00  0.00     0.293 HD
ENDBRANCH   6  12
TORSDOF 3
ENDMDL
MODEL 10
REMARK VINA RESULT:      -5.7      8.599     10.707
REMARK SMILES CC(=O)/C=C/c1ccccc1O
REMARK SMILES IDX 6 1 7 2 8 3 9 4 10 5 11 6 5 7 4 8 2 9 3 10 1 11 12 12
REMARK H PARENT 12 13
ROOT
ATOM      1  C   UNL     1      -4.063  -0.390 -27.275  1.00  0.00     0.016 A 
ATOM      2  C   UNL     1      -3.240   0.698 -26.944  1.00  0.00     0.012 A 
ATOM      3  C   UNL     1      -2.168   1.061 -27.762  1.00  0.00     0.001 A 
ATOM      4  C   UNL     1      -1.909   0.348 -28.930  1.00  0.00     0.004 A 
ATOM      5  C   UNL     1      -2.725  -0.724 -29.286  1.00  0.00     0.047 A 
ATOM      6  C   UNL     1      -3.798  -1.085 -28.466  1.00  0.00     0.122 A 
ENDROOT
BRANCH   1   7
ATOM      7  C   UNL     1      -5.188  -0.686 -26.372  1.00  0.00     0.015 C 
ATOM      8  C   UNL     1      -5.195  -0.388 -25.065  1.00  0.00     0.047 C 
BRANCH   8   9
ATOM      9  C   UNL     1      -6.382  -0.711 -24.226  1.00  0.00     0.152 C 
ATOM     10  O   UNL     1      -6.540  -1.825 -23.731  1.00  0.00    -0.295 OA
ATOM     11  C   UNL     1      -7.402   0.380 -24.046  1.00  0.00     0.093 C 
ENDBRANCH   8   9
ENDBRANCH   1   7
BRANCH   6  12
ATOM     12  O   UNL     1      -4.605  -2.126 -28.845  1.00  0.00    -0.507 OA
ATOM     13  H   UNL     1      -4.954  -1.941 -29.733  1.00  0.00     0.293 HD
ENDBRANCH   6  12
TORSDOF 3
ENDMDL
