MODEL 1
REMARK VINA RESULT:      -8.3      0.000      0.000
REMARK SMILES O=C(/C=C/c1ccc(O)c(O)c1)O[C@@H]1C[C@](O)(C(=O)O)C[C@@H](O)[C@H]1O
REMARK SMILES IDX 2 1 1 2 13 3 14 4 21 5 22 6 16 7 24 8 15 9 23 10 17 12 18 14
REMARK SMILES IDX 19 15 20 16 25 18 3 20 4 21 5 22 12 23 6 24 10 25 7 26 8 27
REMARK SMILES IDX 11 28 9 30
REMARK H PARENT 23 11 17 13 20 17 25 19 11 29 9 31
ROOT
ATOM      1  C   UNL     1      -4.945   2.923 -30.367  1.00  0.00     0.331 C 
ATOM      2  O   UNL     1      -4.696   4.083 -30.666  1.00  0.00    -0.247 OA
ENDROOT
BRANCH   1   3
ATOM      3  O   UNL     1      -4.089   2.057 -29.776  1.00  0.00    -0.456 OA
BRANCH   3   4
ATOM      4  C   UNL     1      -4.642   0.770 -29.428  1.00  0.00     0.211 C 
ATOM      5  C   UNL     1      -4.267  -1.843 -28.058  1.00  0.00     0.082 C 
ATOM      6  C   UNL     1      -4.166  -1.730 -29.578  1.00  0.00     0.150 C 
ATOM      7  C   UNL     1      -5.157  -0.745 -27.461  1.00  0.00     0.167 C 
ATOM      8  C   UNL     1      -3.744  -0.323 -30.036  1.00  0.00     0.184 C 
ATOM      9  C   UNL     1      -4.697   0.643 -27.902  1.00  0.00     0.095 C 
BRANCH   6  10
ATOM     10  O   UNL     1      -5.419  -2.057 -30.200  1.00  0.00    -0.390 OA
ATOM     11  H   UNL     1      -5.846  -1.225 -30.492  1.00  0.00     0.211 HD
ENDBRANCH   6  10
BRANCH   7  12
ATOM     12  O   UNL     1      -6.511  -0.971 -27.914  1.00  0.00    -0.378 OA
ATOM     13  H   UNL     1      -7.109  -0.506 -27.290  1.00  0.00     0.212 HD
ENDBRANCH   7  12
BRANCH   7  14
ATOM     14  C   UNL     1      -5.131  -0.870 -25.929  1.00  0.00     0.335 C 
ATOM     15  O   UNL     1      -5.582  -1.807 -25.293  1.00  0.00    -0.249 OA
BRANCH  14  16
ATOM     16  O   UNL     1      -4.557   0.215 -25.350  1.00  0.00    -0.479 OA
ATOM     17  H   UNL     1      -4.647   0.153 -24.371  1.00  0.00     0.296 HD
ENDBRANCH  14  16
ENDBRANCH   7  14
BRANCH   8  18
ATOM     18  O   UNL     1      -3.817  -0.265 -31.467  1.00  0.00    -0.387 OA
ATOM     19  H   UNL     1      -3.791  -1.196 -31.774  1.00  0.00     0.211 HD
ENDBRANCH   8  18
ENDBRANCH   3   4
ENDBRANCH   1   3
BRANCH   1  20
ATOM     20  C   UNL     1      -6.249   2.297 -30.667  1.00  0.00     0.094 C 
ATOM     21  C   UNL     1      -6.629   1.898 -31.892  1.00  0.00     0.016 C 
BRANCH  21  22
ATOM     22  C   UNL     1      -7.926   1.266 -32.167  1.00  0.00    -0.021 A 
ATOM     23  C   UNL     1      -8.870   1.038 -31.153  1.00  0.00     0.058 A 
ATOM     24  C   UNL     1      -8.247   0.937 -33.493  1.00  0.00     0.012 A 
ATOM     25  C   UNL     1     -10.097   0.466 -31.475  1.00  0.00     0.157 A 
ATOM     26  C   UNL     1      -9.481   0.361 -33.807  1.00  0.00     0.051 A 
ATOM     27  C   UNL     1     -10.395   0.129 -32.791  1.00  0.00     0.157 A 
BRANCH  25  28
ATOM     28  O   UNL     1     -11.052   0.221 -30.526  1.00  0.00    -0.504 OA
ATOM     29  H   UNL     1     -11.625   1.003 -30.460  1.00  0.00     0.293 HD
ENDBRANCH  25  28
BRANCH  27  30
ATOM     30  O   UNL     1     -11.602  -0.430 -33.097  1.00  0.00    -0.504 OA
ATOM     31  H   UNL     1     -11.791  -1.030 -32.348  1.00  0.00     0.293 HD
ENDBRANCH  27  30
ENDBRANCH  21  22
ENDBRANCH   1  20
TORSDOF 11
ENDMDL
MODEL 2
REMARK VINA RESULT:      -8.1      1.745      4.228
REMARK SMILES O=C(/C=C/c1ccc(O)c(O)c1)O[C@@H]1C[C@](O)(C(=O)O)C[C@@H](O)[C@H]1O
REMARK SMILES IDX 2 1 1 2 13 3 14 4 21 5 22 6 16 7 24 8 15 9 23 10 17 12 18 14
REMARK SMILES IDX 19 15 20 16 25 18 3 20 4 21 5 22 12 23 6 24 10 25 7 26 8 27
REMARK SMILES IDX 11 28 9 30
REMARK H PARENT 23 11 17 13 20 17 25 19 11 29 9 31
ROOT
ATOM      1  C   UNL     1      -6.955  -1.182 -27.080  1.00  0.00     0.331 C 
ATOM      2  O   UNL     1      -7.458  -1.401 -25.987  1.00  0.00    -0.247 OA
ENDROOT
BRANCH   1   3
ATOM      3  O   UNL     1      -5.696  -1.512 -27.452  1.00  0.00    -0.456 OA
BRANCH   3   4
ATOM      4  C   UNL     1      -4.888  -0.427 -27.954  1.00  0.00     0.211 C 
ATOM      5  C   UNL     1      -2.191   0.541 -28.753  1.00  0.00     0.082 C 
ATOM      6  C   UNL     1      -2.810   0.948 -27.416  1.00  0.00     0.150 C 
ATOM      7  C   UNL     1      -3.261   0.198 -29.796  1.00  0.00     0.167 C 
ATOM      8  C   UNL     1      -3.820  -0.088 -26.897  1.00  0.00     0.184 C 
ATOM      9  C   UNL     1      -4.232  -0.858 -29.270  1.00  0.00     0.095 C 
BRANCH   6  10
ATOM     10  O   UNL     1      -3.472   2.219 -27.524  1.00  0.00    -0.390 OA
ATOM     11  H   UNL     1      -4.155   2.153 -28.223  1.00  0.00     0.211 HD
ENDBRANCH   6  10
BRANCH   7  12
ATOM     12  O   UNL     1      -3.988   1.408 -30.107  1.00  0.00    -0.378 OA
ATOM     13  H   UNL     1      -3.531   1.839 -30.861  1.00  0.00     0.212 HD
ENDBRANCH   7  12
BRANCH   7  14
ATOM     14  C   UNL     1      -2.563  -0.289 -31.076  1.00  0.00     0.335 C 
ATOM     15  O   UNL     1      -3.047  -1.054 -31.893  1.00  0.00    -0.249 OA
BRANCH  14  16
ATOM     16  O   UNL     1      -1.310   0.220 -31.186  1.00  0.00    -0.479 OA
ATOM     17  H   UNL     1      -1.317   0.983 -31.808  1.00  0.00     0.296 HD
ENDBRANCH  14  16
ENDBRANCH   7  14
BRANCH   8  18
ATOM     18  O   UNL     1      -4.456   0.438 -25.724  1.00  0.00    -0.387 OA
ATOM     19  H   UNL     1      -4.922  -0.318 -25.310  1.00  0.00     0.211 HD
ENDBRANCH   8  18
ENDBRANCH   3   4
ENDBRANCH   1   3
BRANCH   1  20
ATOM     20  C   UNL     1      -7.680  -0.467 -28.150  1.00  0.00     0.094 C 
ATOM     21  C   UNL     1      -8.121  -1.045 -29.278  1.00  0.00     0.016 C 
BRANCH  21  22
ATOM     22  C   UNL     1      -8.851  -0.318 -30.325  1.00  0.00    -0.021 A 
ATOM     23  C   UNL     1      -9.954  -0.880 -30.987  1.00  0.00     0.058 A 
ATOM     24  C   UNL     1      -8.464   0.997 -30.626  1.00  0.00     0.012 A 
ATOM     25  C   UNL     1     -10.631  -0.133 -31.947  1.00  0.00     0.157 A 
ATOM     26  C   UNL     1      -9.148   1.739 -31.594  1.00  0.00     0.051 A 
ATOM     27  C   UNL     1     -10.226   1.163 -32.248  1.00  0.00     0.157 A 
BRANCH  25  28
ATOM     28  O   UNL     1     -11.711  -0.633 -32.623  1.00  0.00    -0.504 OA
ATOM     29  H   UNL     1     -12.337  -0.995 -31.973  1.00  0.00     0.293 HD
ENDBRANCH  25  28
BRANCH  27  30
ATOM     30  O   UNL     1     -10.897   1.887 -33.191  1.00  0.00    -0.504 OA
ATOM     31  H   UNL     1     -10.195   2.355 -33.686  1.00  0.00     0.293 HD
ENDBRANCH  27  30
ENDBRANCH  21  22
ENDBRANCH   1  20
TORSDOF 11
ENDMDL
MODEL 3
REMARK VINA RESULT:      -7.9      3.861      5.206
REMARK SMILES O=C(/C=C/c1ccc(O)c(O)c1)O[C@@H]1C[C@](O)(C(=O)O)C[C@@H](O)[C@H]1O
REMARK SMILES IDX 2 1 1 2 13 3 14 4 21 5 22 6 16 7 24 8 15 9 23 10 17 12 18 14
REMARK SMILES IDX 19 15 20 16 25 18 3 20 4 21 5 22 12 23 6 24 10 25 7 26 8 27
REMARK SMILES IDX 11 28 9 30
REMARK H PARENT 23 11 17 13 20 17 25 19 11 29 9 31
ROOT
ATOM      1  C   UNL     1      -6.905  -1.044 -31.007  1.00  0.00     0.331 C 
ATOM      2  O   UNL     1      -7.063  -0.255 -31.929  1.00  0.00    -0.247 OA
ENDROOT
BRANCH   1   3
ATOM      3  O   UNL     1      -5.735  -1.296 -30.375  1.00  0.00    -0.456 OA
BRANCH   3   4
ATOM      4  C   UNL     1      -5.483  -0.513 -29.189  1.00  0.00     0.211 C 
ATOM      5  C   UNL     1      -3.482   0.741 -27.380  1.00  0.00     0.082 C 
ATOM      6  C   UNL     1      -4.196  -0.553 -26.989  1.00  0.00     0.150 C 
ATOM      7  C   UNL     1      -4.315   1.579 -28.359  1.00  0.00     0.167 C 
ATOM      8  C   UNL     1      -4.651  -1.365 -28.213  1.00  0.00     0.184 C 
ATOM      9  C   UNL     1      -4.725   0.760 -29.582  1.00  0.00     0.095 C 
BRANCH   6  10
ATOM     10  O   UNL     1      -5.343  -0.277 -26.170  1.00  0.00    -0.390 OA
ATOM     11  H   UNL     1      -5.995   0.219 -26.708  1.00  0.00     0.211 HD
ENDBRANCH   6  10
BRANCH   7  12
ATOM     12  O   UNL     1      -5.498   2.035 -27.664  1.00  0.00    -0.378 OA
ATOM     13  H   UNL     1      -5.249   2.178 -26.726  1.00  0.00     0.212 HD
ENDBRANCH   7  12
BRANCH   7  14
ATOM     14  C   UNL     1      -3.494   2.810 -28.775  1.00  0.00     0.335 C 
ATOM     15  O   UNL     1      -2.746   3.436 -28.042  1.00  0.00    -0.249 OA
BRANCH  14  16
ATOM     16  O   UNL     1      -3.715   3.142 -30.072  1.00  0.00    -0.479 OA
ATOM     17  H   UNL     1      -2.898   2.982 -30.598  1.00  0.00     0.296 HD
ENDBRANCH  14  16
ENDBRANCH   7  14
BRANCH   8  18
ATOM     18  O   UNL     1      -5.434  -2.478 -27.759  1.00  0.00    -0.387 OA
ATOM     19  H   UNL     1      -5.324  -3.176 -28.438  1.00  0.00     0.211 HD
ENDBRANCH   8  18
ENDBRANCH   3   4
ENDBRANCH   1   3
BRANCH   1  20
ATOM     20  C   UNL     1      -8.009  -1.875 -30.486  1.00  0.00     0.094 C 
ATOM     21  C   UNL     1      -7.863  -3.140 -30.060  1.00  0.00     0.016 C 
BRANCH  21  22
ATOM     22  C   UNL     1      -8.972  -3.946 -29.534  1.00  0.00    -0.021 A 
ATOM     23  C   UNL     1      -9.744  -4.776 -30.363  1.00  0.00     0.058 A 
ATOM     24  C   UNL     1      -9.225  -3.925 -28.154  1.00  0.00     0.012 A 
ATOM     25  C   UNL     1     -10.762  -5.545 -29.806  1.00  0.00     0.157 A 
ATOM     26  C   UNL     1     -10.251  -4.699 -27.604  1.00  0.00     0.051 A 
ATOM     27  C   UNL     1     -11.013  -5.501 -28.438  1.00  0.00     0.157 A 
BRANCH  25  28
ATOM     28  O   UNL     1     -11.545  -6.369 -30.568  1.00  0.00    -0.504 OA
ATOM     29  H   UNL     1     -10.970  -6.854 -31.184  1.00  0.00     0.293 HD
ENDBRANCH  25  28
BRANCH  27  30
ATOM     30  O   UNL     1     -12.013  -6.260 -27.902  1.00  0.00    -0.504 OA
ATOM     31  H   UNL     1     -11.735  -6.413 -26.977  1.00  0.00     0.293 HD
ENDBRANCH  27  30
ENDBRANCH  21  22
ENDBRANCH   1  20
TORSDOF 11
ENDMDL
MODEL 4
REMARK VINA RESULT:      -7.8      4.589      7.105
REMARK SMILES O=C(/C=C/c1ccc(O)c(O)c1)O[C@@H]1C[C@](O)(C(=O)O)C[C@@H](O)[C@H]1O
REMARK SMILES IDX 2 1 1 2 13 3 14 4 21 5 22 6 16 7 24 8 15 9 23 10 17 12 18 14
REMARK SMILES IDX 19 15 20 16 25 18 3 20 4 21 5 22 12 23 6 24 10 25 7 26 8 27
REMARK SMILES IDX 11 28 9 30
REMARK H PARENT 23 11 17 13 20 17 25 19 11 29 9 31
ROOT
ATOM      1  C   UNL     1      -7.260  -2.462 -29.185  1.00  0.00     0.331 C 
ATOM      2  O   UNL     1      -6.331  -2.042 -28.508  1.00  0.00    -0.247 OA
ENDROOT
BRANCH   1   3
ATOM      3  O   UNL     1      -7.457  -2.210 -30.500  1.00  0.00    -0.456 OA
BRANCH   3   4
ATOM      4  C   UNL     1      -7.692  -0.828 -30.843  1.00  0.00     0.211 C 
ATOM      5  C   UNL     1      -7.962   1.223 -32.981  1.00  0.00     0.082 C 
ATOM      6  C   UNL     1      -6.686   1.118 -32.147  1.00  0.00     0.150 C 
ATOM      7  C   UNL     1      -9.184   0.688 -32.224  1.00  0.00     0.167 C 
ATOM      8  C   UNL     1      -6.458  -0.300 -31.598  1.00  0.00     0.184 C 
ATOM      9  C   UNL     1      -8.946  -0.734 -31.719  1.00  0.00     0.095 C 
BRANCH   6  10
ATOM     10  O   UNL     1      -6.719   2.036 -31.043  1.00  0.00    -0.390 OA
ATOM     11  H   UNL     1      -7.315   1.672 -30.356  1.00  0.00     0.211 HD
ENDBRANCH   6  10
BRANCH   7  12
ATOM     12  O   UNL     1      -9.434   1.563 -31.101  1.00  0.00    -0.378 OA
ATOM     13  H   UNL     1      -8.569   1.930 -30.818  1.00  0.00     0.212 HD
ENDBRANCH   7  12
BRANCH   7  14
ATOM     14  C   UNL     1     -10.403   0.740 -33.158  1.00  0.00     0.335 C 
ATOM     15  O   UNL     1     -10.774  -0.171 -33.880  1.00  0.00    -0.249 OA
BRANCH  14  16
ATOM     16  O   UNL     1     -11.023   1.946 -33.105  1.00  0.00    -0.479 OA
ATOM     17  H   UNL     1     -10.703   2.515 -33.842  1.00  0.00     0.296 HD
ENDBRANCH  14  16
ENDBRANCH   7  14
BRANCH   8  18
ATOM     18  O   UNL     1      -5.328  -0.274 -30.714  1.00  0.00    -0.387 OA
ATOM     19  H   UNL     1      -4.667  -0.881 -31.107  1.00  0.00     0.211 HD
ENDBRANCH   8  18
ENDBRANCH   3   4
ENDBRANCH   1   3
BRANCH   1  20
ATOM     20  C   UNL     1      -8.338  -3.293 -28.611  1.00  0.00     0.094 C 
ATOM     21  C   UNL     1      -9.361  -2.806 -27.890  1.00  0.00     0.016 C 
BRANCH  21  22
ATOM     22  C   UNL     1     -10.430  -3.648 -27.338  1.00  0.00    -0.021 A 
ATOM     23  C   UNL     1     -10.563  -5.002 -27.688  1.00  0.00     0.058 A 
ATOM     24  C   UNL     1     -11.305  -3.093 -26.392  1.00  0.00     0.012 A 
ATOM     25  C   UNL     1     -11.574  -5.763 -27.109  1.00  0.00     0.157 A 
ATOM     26  C   UNL     1     -12.319  -3.864 -25.817  1.00  0.00     0.051 A 
ATOM     27  C   UNL     1     -12.445  -5.195 -26.185  1.00  0.00     0.157 A 
BRANCH  25  28
ATOM     28  O   UNL     1     -11.749  -7.085 -27.414  1.00  0.00    -0.504 OA
ATOM     29  H   UNL     1     -12.213  -7.143 -28.266  1.00  0.00     0.293 HD
ENDBRANCH  25  28
BRANCH  27  30
ATOM     30  O   UNL     1     -13.433  -5.950 -25.622  1.00  0.00    -0.504 OA
ATOM     31  H   UNL     1     -12.959  -6.584 -25.047  1.00  0.00     0.293 HD
ENDBRANCH  27  30
ENDBRANCH  21  22
ENDBRANCH   1  20
TORSDOF 11
ENDMDL
MODEL 5
REMARK VINA RESULT:      -7.8      5.476      7.231
REMARK SMILES O=C(/C=C/c1ccc(O)c(O)c1)O[C@@H]1C[C@](O)(C(=O)O)C[C@@H](O)[C@H]1O
REMARK SMILES IDX 2 1 1 2 13 3 14 4 21 5 22 6 16 7 24 8 15 9 23 10 17 12 18 14
REMARK SMILES IDX 19 15 20 16 25 18 3 20 4 21 5 22 12 23 6 24 10 25 7 26 8 27
REMARK SMILES IDX 11 28 9 30
REMARK H PARENT 23 11 17 13 20 17 25 19 11 29 9 31
ROOT
ATOM      1  C   UNL     1     -10.501  -5.163 -29.919  1.00  0.00     0.331 C 
ATOM      2  O   UNL     1     -11.075  -6.124 -30.412  1.00  0.00    -0.247 OA
ENDROOT
BRANCH   1   3
ATOM      3  O   UNL     1     -10.036  -5.085 -28.651  1.00  0.00    -0.456 OA
BRANCH   3   4
ATOM      4  C   UNL     1     -11.025  -4.806 -27.637  1.00  0.00     0.211 C 
ATOM      5  C   UNL     1     -11.661  -4.563 -24.742  1.00  0.00     0.082 C 
ATOM      6  C   UNL     1     -12.089  -5.793 -25.541  1.00  0.00     0.150 C 
ATOM      7  C   UNL     1     -11.508  -3.326 -25.636  1.00  0.00     0.167 C 
ATOM      8  C   UNL     1     -11.174  -6.055 -26.749  1.00  0.00     0.184 C 
ATOM      9  C   UNL     1     -10.567  -3.601 -26.808  1.00  0.00     0.095 C 
BRANCH   6  10
ATOM     10  O   UNL     1     -13.439  -5.654 -26.012  1.00  0.00    -0.390 OA
ATOM     11  H   UNL     1     -13.892  -6.516 -25.911  1.00  0.00     0.211 HD
ENDBRANCH   6  10
BRANCH   7  12
ATOM     12  O   UNL     1     -12.815  -2.972 -26.139  1.00  0.00    -0.378 OA
ATOM     13  H   UNL     1     -13.470  -3.218 -25.452  1.00  0.00     0.212 HD
ENDBRANCH   7  12
BRANCH   7  14
ATOM     14  C   UNL     1     -10.987  -2.161 -24.779  1.00  0.00     0.335 C 
ATOM     15  O   UNL     1     -10.118  -1.374 -25.116  1.00  0.00    -0.249 OA
BRANCH  14  16
ATOM     16  O   UNL     1     -11.600  -2.118 -23.569  1.00  0.00    -0.479 OA
ATOM     17  H   UNL     1     -11.489  -1.223 -23.174  1.00  0.00     0.296 HD
ENDBRANCH  14  16
ENDBRANCH   7  14
BRANCH   8  18
ATOM     18  O   UNL     1     -11.729  -7.130 -27.521  1.00  0.00    -0.387 OA
ATOM     19  H   UNL     1     -11.907  -6.757 -28.409  1.00  0.00     0.211 HD
ENDBRANCH   8  18
ENDBRANCH   3   4
ENDBRANCH   1   3
BRANCH   1  20
ATOM     20  C   UNL     1     -10.280  -3.910 -30.670  1.00  0.00     0.094 C 
ATOM     21  C   UNL     1      -9.374  -2.979 -30.331  1.00  0.00     0.016 C 
BRANCH  21  22
ATOM     22  C   UNL     1      -9.161  -1.745 -31.098  1.00  0.00    -0.021 A 
ATOM     23  C   UNL     1     -10.234  -0.983 -31.591  1.00  0.00     0.058 A 
ATOM     24  C   UNL     1      -7.848  -1.289 -31.290  1.00  0.00     0.012 A 
ATOM     25  C   UNL     1      -9.975   0.196 -32.283  1.00  0.00     0.157 A 
ATOM     26  C   UNL     1      -7.598  -0.104 -31.989  1.00  0.00     0.051 A 
ATOM     27  C   UNL     1      -8.668   0.627 -32.481  1.00  0.00     0.157 A 
BRANCH  25  28
ATOM     28  O   UNL     1     -10.983   0.975 -32.785  1.00  0.00    -0.504 OA
ATOM     29  H   UNL     1     -11.810   0.730 -32.338  1.00  0.00     0.293 HD
ENDBRANCH  25  28
BRANCH  27  30
ATOM     30  O   UNL     1      -8.426   1.786 -33.160  1.00  0.00    -0.504 OA
ATOM     31  H   UNL     1      -8.088   2.403 -32.480  1.00  0.00     0.293 HD
ENDBRANCH  27  30
ENDBRANCH  21  22
ENDBRANCH   1  20
TORSDOF 11
ENDMDL
MODEL 6
REMARK VINA RESULT:      -7.8      4.029      6.528
REMARK SMILES O=C(/C=C/c1ccc(O)c(O)c1)O[C@@H]1C[C@](O)(C(=O)O)C[C@@H](O)[C@H]1O
REMARK SMILES IDX 2 1 1 2 13 3 14 4 21 5 22 6 16 7 24 8 15 9 23 10 17 12 18 14
REMARK SMILES IDX 19 15 20 16 25 18 3 20 4 21 5 22 12 23 6 24 10 25 7 26 8 27
REMARK SMILES IDX 11 28 9 30
REMARK H PARENT 23 11 17 13 20 17 25 19 11 29 9 31
ROOT
ATOM      1  C   UNL     1      -6.129  -2.125 -29.721  1.00  0.00     0.331 C 
ATOM      2  O   UNL     1      -5.057  -1.992 -29.146  1.00  0.00    -0.247 OA
ENDROOT
BRANCH   1   3
ATOM      3  O   UNL     1      -6.419  -1.679 -30.965  1.00  0.00    -0.456 OA
BRANCH   3   4
ATOM      4  C   UNL     1      -7.104  -0.410 -31.030  1.00  0.00     0.211 C 
ATOM      5  C   UNL     1      -8.057   1.852 -32.711  1.00  0.00     0.082 C 
ATOM      6  C   UNL     1      -6.814   1.992 -31.833  1.00  0.00     0.150 C 
ATOM      7  C   UNL     1      -9.026   0.795 -32.164  1.00  0.00     0.167 C 
ATOM      8  C   UNL     1      -6.122   0.643 -31.575  1.00  0.00     0.184 C 
ATOM      9  C   UNL     1      -8.323  -0.545 -31.950  1.00  0.00     0.095 C 
BRANCH   6  10
ATOM     10  O   UNL     1      -7.146   2.585 -30.567  1.00  0.00    -0.390 OA
ATOM     11  H   UNL     1      -7.704   3.374 -30.731  1.00  0.00     0.211 HD
ENDBRANCH   6  10
BRANCH   7  12
ATOM     12  O   UNL     1      -9.547   1.273 -30.904  1.00  0.00    -0.378 OA
ATOM     13  H   UNL     1      -9.524   2.253 -30.931  1.00  0.00     0.212 HD
ENDBRANCH   7  12
BRANCH   7  14
ATOM     14  C   UNL     1     -10.197   0.646 -33.148  1.00  0.00     0.335 C 
ATOM     15  O   UNL     1     -10.386  -0.313 -33.877  1.00  0.00    -0.249 OA
BRANCH  14  16
ATOM     16  O   UNL     1     -11.006   1.736 -33.130  1.00  0.00    -0.479 OA
ATOM     17  H   UNL     1     -11.010   2.130 -32.228  1.00  0.00     0.296 HD
ENDBRANCH  14  16
ENDBRANCH   7  14
BRANCH   8  18
ATOM     18  O   UNL     1      -5.061   0.845 -30.631  1.00  0.00    -0.387 OA
ATOM     19  H   UNL     1      -4.244   0.544 -31.079  1.00  0.00     0.211 HD
ENDBRANCH   8  18
ENDBRANCH   3   4
ENDBRANCH   1   3
BRANCH   1  20
ATOM     20  C   UNL     1      -7.289  -2.778 -29.081  1.00  0.00     0.094 C 
ATOM     21  C   UNL     1      -8.050  -3.711 -29.674  1.00  0.00     0.016 C 
BRANCH  21  22
ATOM     22  C   UNL     1      -9.193  -4.357 -29.015  1.00  0.00    -0.021 A 
ATOM     23  C   UNL     1      -9.735  -3.862 -27.817  1.00  0.00     0.058 A 
ATOM     24  C   UNL     1      -9.791  -5.465 -29.635  1.00  0.00     0.012 A 
ATOM     25  C   UNL     1     -10.840  -4.494 -27.253  1.00  0.00     0.157 A 
ATOM     26  C   UNL     1     -10.899  -6.094 -29.059  1.00  0.00     0.051 A 
ATOM     27  C   UNL     1     -11.412  -5.602 -27.870  1.00  0.00     0.157 A 
BRANCH  25  28
ATOM     28  O   UNL     1     -11.407  -4.054 -26.088  1.00  0.00    -0.504 OA
ATOM     29  H   UNL     1     -12.372  -4.133 -26.168  1.00  0.00     0.293 HD
ENDBRANCH  25  28
BRANCH  27  30
ATOM     30  O   UNL     1     -12.496  -6.213 -27.309  1.00  0.00    -0.504 OA
ATOM     31  H   UNL     1     -13.198  -5.533 -27.329  1.00  0.00     0.293 HD
ENDBRANCH  27  30
ENDBRANCH  21  22
ENDBRANCH   1  20
TORSDOF 11
ENDMDL
MODEL 7
REMARK VINA RESULT:      -7.8      4.542      7.624
REMARK SMILES O=C(/C=C/c1ccc(O)c(O)c1)O[C@@H]1C[C@](O)(C(=O)O)C[C@@H](O)[C@H]1O
REMARK SMILES IDX 2 1 1 2 13 3 14 4 21 5 22 6 16 7 24 8 15 9 23 10 17 12 18 14
REMARK SMILES IDX 19 15 20 16 25 18 3 20 4 21 5 22 12 23 6 24 10 25 7 26 8 27
REMARK SMILES IDX 11 28 9 30
REMARK H PARENT 23 11 17 13 20 17 25 19 11 29 9 31
ROOT
ATOM      1  C   UNL     1      -7.936  -3.356 -29.762  1.00  0.00     0.331 C 
ATOM      2  O   UNL     1      -7.871  -4.300 -30.537  1.00  0.00    -0.247 OA
ENDROOT
BRANCH   1   3
ATOM      3  O   UNL     1      -9.074  -2.777 -29.314  1.00  0.00    -0.456 OA
BRANCH   3   4
ATOM      4  C   UNL     1      -9.480  -3.146 -27.979  1.00  0.00     0.211 C 
ATOM      5  C   UNL     1     -11.655  -3.269 -25.954  1.00  0.00     0.082 C 
ATOM      6  C   UNL     1     -10.565  -2.202 -25.874  1.00  0.00     0.150 C 
ATOM      7  C   UNL     1     -11.171  -4.526 -26.689  1.00  0.00     0.167 C 
ATOM      8  C   UNL     1      -9.959  -1.877 -27.250  1.00  0.00     0.184 C 
ATOM      9  C   UNL     1     -10.606  -4.182 -28.066  1.00  0.00     0.095 C 
BRANCH   6  10
ATOM     10  O   UNL     1      -9.507  -2.615 -24.994  1.00  0.00    -0.390 OA
ATOM     11  H   UNL     1      -9.882  -2.742 -24.098  1.00  0.00     0.211 HD
ENDBRANCH   6  10
BRANCH   7  12
ATOM     12  O   UNL     1     -10.141  -5.145 -25.886  1.00  0.00    -0.378 OA
ATOM     13  H   UNL     1      -9.557  -5.646 -26.495  1.00  0.00     0.212 HD
ENDBRANCH   7  12
BRANCH   7  14
ATOM     14  C   UNL     1     -12.347  -5.509 -26.810  1.00  0.00     0.335 C 
ATOM     15  O   UNL     1     -13.431  -5.377 -26.267  1.00  0.00    -0.249 OA
BRANCH  14  16
ATOM     16  O   UNL     1     -12.029  -6.574 -27.588  1.00  0.00    -0.479 OA
ATOM     17  H   UNL     1     -12.691  -7.291 -27.454  1.00  0.00     0.296 HD
ENDBRANCH  14  16
ENDBRANCH   7  14
BRANCH   8  18
ATOM     18  O   UNL     1      -8.853  -0.982 -27.064  1.00  0.00    -0.387 OA
ATOM     19  H   UNL     1      -8.963  -0.279 -27.738  1.00  0.00     0.211 HD
ENDBRANCH   8  18
ENDBRANCH   3   4
ENDBRANCH   1   3
BRANCH   1  20
ATOM     20  C   UNL     1      -6.728  -2.686 -29.239  1.00  0.00     0.094 C 
ATOM     21  C   UNL     1      -5.992  -1.807 -29.937  1.00  0.00     0.016 C 
BRANCH  21  22
ATOM     22  C   UNL     1      -4.800  -1.142 -29.394  1.00  0.00    -0.021 A 
ATOM     23  C   UNL     1      -3.723  -0.764 -30.213  1.00  0.00     0.058 A 
ATOM     24  C   UNL     1      -4.769  -0.826 -28.027  1.00  0.00     0.012 A 
ATOM     25  C   UNL     1      -2.634  -0.106 -29.651  1.00  0.00     0.157 A 
ATOM     26  C   UNL     1      -3.669  -0.167 -27.471  1.00  0.00     0.051 A 
ATOM     27  C   UNL     1      -2.609   0.185 -28.290  1.00  0.00     0.157 A 
BRANCH  25  28
ATOM     28  O   UNL     1      -1.558   0.284 -30.402  1.00  0.00    -0.504 OA
ATOM     29  H   UNL     1      -1.724   0.033 -31.326  1.00  0.00     0.293 HD
ENDBRANCH  25  28
BRANCH  27  30
ATOM     30  O   UNL     1      -1.535   0.832 -27.749  1.00  0.00    -0.504 OA
ATOM     31  H   UNL     1      -0.819   0.707 -28.403  1.00  0.00     0.293 HD
ENDBRANCH  27  30
ENDBRANCH  21  22
ENDBRANCH   1  20
TORSDOF 11
ENDMDL
MODEL 8
REMARK VINA RESULT:      -7.7      3.934      5.256
REMARK SMILES O=C(/C=C/c1ccc(O)c(O)c1)O[C@@H]1C[C@](O)(C(=O)O)C[C@@H](O)[C@H]1O
REMARK SMILES IDX 2 1 1 2 13 3 14 4 21 5 22 6 16 7 24 8 15 9 23 10 17 12 18 14
REMARK SMILES IDX 19 15 20 16 25 18 3 20 4 21 5 22 12 23 6 24 10 25 7 26 8 27
REMARK SMILES IDX 11 28 9 30
REMARK H PARENT 23 11 17 13 20 17 25 19 11 29 9 31
ROOT
ATOM      1  C   UNL     1      -7.094  -1.243 -30.916  1.00  0.00     0.331 C 
ATOM      2  O   UNL     1      -7.357  -0.555 -31.893  1.00  0.00    -0.247 OA
ENDROOT
BRANCH   1   3
ATOM      3  O   UNL     1      -5.866  -1.404 -30.369  1.00  0.00    -0.456 OA
BRANCH   3   4
ATOM      4  C   UNL     1      -5.600  -0.620 -29.187  1.00  0.00     0.211 C 
ATOM      5  C   UNL     1      -3.578   0.593 -27.374  1.00  0.00     0.082 C 
ATOM      6  C   UNL     1      -4.326  -0.680 -26.980  1.00  0.00     0.150 C 
ATOM      7  C   UNL     1      -4.384   1.446 -28.362  1.00  0.00     0.167 C 
ATOM      8  C   UNL     1      -4.796  -1.488 -28.202  1.00  0.00     0.184 C 
ATOM      9  C   UNL     1      -4.809   0.631 -29.582  1.00  0.00     0.095 C 
BRANCH   6  10
ATOM     10  O   UNL     1      -5.471  -0.370 -26.169  1.00  0.00    -0.390 OA
ATOM     11  H   UNL     1      -6.279  -0.589 -26.678  1.00  0.00     0.211 HD
ENDBRANCH   6  10
BRANCH   7  12
ATOM     12  O   UNL     1      -5.558   1.936 -27.677  1.00  0.00    -0.378 OA
ATOM     13  H   UNL     1      -5.290   2.729 -27.165  1.00  0.00     0.212 HD
ENDBRANCH   7  12
BRANCH   7  14
ATOM     14  C   UNL     1      -3.529   2.653 -28.781  1.00  0.00     0.335 C 
ATOM     15  O   UNL     1      -2.742   3.241 -28.058  1.00  0.00    -0.249 OA
BRANCH  14  16
ATOM     16  O   UNL     1      -3.769   3.013 -30.067  1.00  0.00    -0.479 OA
ATOM     17  H   UNL     1      -2.946   3.374 -30.468  1.00  0.00     0.296 HD
ENDBRANCH  14  16
ENDBRANCH   7  14
BRANCH   8  18
ATOM     18  O   UNL     1      -5.609  -2.578 -27.746  1.00  0.00    -0.387 OA
ATOM     19  H   UNL     1      -5.566  -3.256 -28.452  1.00  0.00     0.211 HD
ENDBRANCH   8  18
ENDBRANCH   3   4
ENDBRANCH   1   3
BRANCH   1  20
ATOM     20  C   UNL     1      -8.121  -2.044 -30.220  1.00  0.00     0.094 C 
ATOM     21  C   UNL     1      -8.118  -3.386 -30.160  1.00  0.00     0.016 C 
BRANCH  21  22
ATOM     22  C   UNL     1      -9.142  -4.163 -29.452  1.00  0.00    -0.021 A 
ATOM     23  C   UNL     1      -9.346  -4.035 -28.068  1.00  0.00     0.058 A 
ATOM     24  C   UNL     1      -9.975  -5.015 -30.194  1.00  0.00     0.012 A 
ATOM     25  C   UNL     1     -10.354  -4.771 -27.453  1.00  0.00     0.157 A 
ATOM     26  C   UNL     1     -10.984  -5.753 -29.566  1.00  0.00     0.051 A 
ATOM     27  C   UNL     1     -11.161  -5.624 -28.198  1.00  0.00     0.157 A 
BRANCH  25  28
ATOM     28  O   UNL     1     -10.595  -4.684 -26.108  1.00  0.00    -0.504 OA
ATOM     29  H   UNL     1      -9.989  -4.024 -25.731  1.00  0.00     0.293 HD
ENDBRANCH  25  28
BRANCH  27  30
ATOM     30  O   UNL     1     -12.148  -6.341 -27.585  1.00  0.00    -0.504 OA
ATOM     31  H   UNL     1     -12.950  -6.154 -28.111  1.00  0.00     0.293 HD
ENDBRANCH  27  30
ENDBRANCH  21  22
ENDBRANCH   1  20
TORSDOF 11
ENDMDL
MODEL 9
REMARK VINA RESULT:      -7.6      4.787      7.940
REMARK SMILES O=C(/C=C/c1ccc(O)c(O)c1)O[C@@H]1C[C@](O)(C(=O)O)C[C@@H](O)[C@H]1O
REMARK SMILES IDX 2 1 1 2 13 3 14 4 21 5 22 6 16 7 24 8 15 9 23 10 17 12 18 14
REMARK SMILES IDX 19 15 20 16 25 18 3 20 4 21 5 22 12 23 6 24 10 25 7 26 8 27
REMARK SMILES IDX 11 28 9 30
REMARK H PARENT 23 11 17 13 20 17 25 19 11 29 9 31
ROOT
ATOM      1  C   UNL     1      -8.072  -0.992 -25.911  1.00  0.00     0.331 C 
ATOM      2  O   UNL     1      -8.001  -0.945 -24.690  1.00  0.00    -0.247 OA
ENDROOT
BRANCH   1   3
ATOM      3  O   UNL     1      -9.139  -1.421 -26.625  1.00  0.00    -0.456 OA
BRANCH   3   4
ATOM      4  C   UNL     1      -9.891  -2.503 -26.037  1.00  0.00     0.211 C 
ATOM      5  C   UNL     1     -12.258  -4.298 -26.194  1.00  0.00     0.082 C 
ATOM      6  C   UNL     1     -12.228  -3.118 -25.224  1.00  0.00     0.150 C 
ATOM      7  C   UNL     1     -10.847  -4.800 -26.527  1.00  0.00     0.167 C 
ATOM      8  C   UNL     1     -11.303  -1.987 -25.704  1.00  0.00     0.184 C 
ATOM      9  C   UNL     1      -9.959  -3.666 -27.034  1.00  0.00     0.095 C 
BRANCH   6  10
ATOM     10  O   UNL     1     -11.797  -3.539 -23.919  1.00  0.00    -0.390 OA
ATOM     11  H   UNL     1     -11.631  -2.741 -23.376  1.00  0.00     0.211 HD
ENDBRANCH   6  10
BRANCH   7  12
ATOM     12  O   UNL     1     -10.275  -5.359 -25.323  1.00  0.00    -0.378 OA
ATOM     13  H   UNL     1      -9.526  -4.783 -25.060  1.00  0.00     0.212 HD
ENDBRANCH   7  12
BRANCH   7  14
ATOM     14  C   UNL     1     -10.958  -5.919 -27.575  1.00  0.00     0.335 C 
ATOM     15  O   UNL     1     -11.972  -6.211 -28.187  1.00  0.00    -0.249 OA
BRANCH  14  16
ATOM     16  O   UNL     1      -9.780  -6.575 -27.732  1.00  0.00    -0.479 OA
ATOM     17  H   UNL     1      -9.091  -5.946 -28.047  1.00  0.00     0.296 HD
ENDBRANCH  14  16
ENDBRANCH   7  14
BRANCH   8  18
ATOM     18  O   UNL     1     -11.220  -0.993 -24.672  1.00  0.00    -0.387 OA
ATOM     19  H   UNL     1     -11.479  -0.148 -25.094  1.00  0.00     0.211 HD
ENDBRANCH   8  18
ENDBRANCH   3   4
ENDBRANCH   1   3
BRANCH   1  20
ATOM     20  C   UNL     1      -6.940  -0.611 -26.779  1.00  0.00     0.094 C 
ATOM     21  C   UNL     1      -5.713  -1.149 -26.696  1.00  0.00     0.016 C 
BRANCH  21  22
ATOM     22  C   UNL     1      -4.603  -0.764 -27.578  1.00  0.00    -0.021 A 
ATOM     23  C   UNL     1      -3.576   0.093 -27.147  1.00  0.00     0.058 A 
ATOM     24  C   UNL     1      -4.543  -1.317 -28.866  1.00  0.00     0.012 A 
ATOM     25  C   UNL     1      -2.530   0.398 -28.013  1.00  0.00     0.157 A 
ATOM     26  C   UNL     1      -3.489  -1.003 -29.730  1.00  0.00     0.051 A 
ATOM     27  C   UNL     1      -2.492  -0.145 -29.294  1.00  0.00     0.157 A 
BRANCH  25  28
ATOM     28  O   UNL     1      -1.506   1.227 -27.646  1.00  0.00    -0.504 OA
ATOM     29  H   UNL     1      -1.312   1.822 -28.390  1.00  0.00     0.293 HD
ENDBRANCH  25  28
BRANCH  27  30
ATOM     30  O   UNL     1      -1.462   0.160 -30.135  1.00  0.00    -0.504 OA
ATOM     31  H   UNL     1      -1.574  -0.450 -30.891  1.00  0.00     0.293 HD
ENDBRANCH  27  30
ENDBRANCH  21  22
ENDBRANCH   1  20
TORSDOF 11
ENDMDL
MODEL 10
REMARK VINA RESULT:      -7.6      3.710      6.692
REMARK SMILES O=C(/C=C/c1ccc(O)c(O)c1)O[C@@H]1C[C@](O)(C(=O)O)C[C@@H](O)[C@H]1O
REMARK SMILES IDX 2 1 1 2 13 3 14 4 21 5 22 6 16 7 24 8 15 9 23 10 17 12 18 14
REMARK SMILES IDX 19 15 20 16 25 18 3 20 4 21 5 22 12 23 6 24 10 25 7 26 8 27
REMARK SMILES IDX 11 28 9 30
REMARK H PARENT 23 11 17 13 20 17 25 19 11 29 9 31
ROOT
ATOM      1  C   UNL     1      -8.428  -0.739 -31.240  1.00  0.00     0.331 C 
ATOM      2  O   UNL     1      -8.400  -0.842 -32.459  1.00  0.00    -0.247 OA
ENDROOT
BRANCH   1   3
ATOM      3  O   UNL     1      -9.502  -0.975 -30.451  1.00  0.00    -0.456 OA
BRANCH   3   4
ATOM      4  C   UNL     1      -9.274  -1.855 -29.330  1.00  0.00     0.211 C 
ATOM      5  C   UNL     1     -10.433  -3.669 -27.278  1.00  0.00     0.082 C 
ATOM      6  C   UNL     1      -9.979  -2.257 -26.913  1.00  0.00     0.150 C 
ATOM      7  C   UNL     1      -9.678  -4.215 -28.497  1.00  0.00     0.167 C 
ATOM      8  C   UNL     1     -10.032  -1.295 -28.112  1.00  0.00     0.184 C 
ATOM      9  C   UNL     1      -9.775  -3.259 -29.685  1.00  0.00     0.095 C 
BRANCH   6  10
ATOM     10  O   UNL     1      -8.639  -2.268 -26.395  1.00  0.00    -0.390 OA
ATOM     11  H   UNL     1      -8.593  -2.926 -25.671  1.00  0.00     0.211 HD
ENDBRANCH   6  10
BRANCH   7  12
ATOM     12  O   UNL     1      -8.292  -4.385 -28.126  1.00  0.00    -0.378 OA
ATOM     13  H   UNL     1      -8.034  -3.602 -27.594  1.00  0.00     0.212 HD
ENDBRANCH   7  12
BRANCH   7  14
ATOM     14  C   UNL     1     -10.256  -5.593 -28.856  1.00  0.00     0.335 C 
ATOM     15  O   UNL     1     -11.109  -5.799 -29.704  1.00  0.00    -0.249 OA
BRANCH  14  16
ATOM     16  O   UNL     1      -9.714  -6.576 -28.094  1.00  0.00    -0.479 OA
ATOM     17  H   UNL     1     -10.220  -7.411 -28.221  1.00  0.00     0.296 HD
ENDBRANCH  14  16
ENDBRANCH   7  14
BRANCH   8  18
ATOM     18  O   UNL     1      -9.454  -0.041 -27.721  1.00  0.00    -0.387 OA
ATOM     19  H   UNL     1      -8.768  -0.260 -27.056  1.00  0.00     0.211 HD
ENDBRANCH   8  18
ENDBRANCH   3   4
ENDBRANCH   1   3
BRANCH   1  20
ATOM     20  C   UNL     1      -7.257  -0.284 -30.463  1.00  0.00     0.094 C 
ATOM     21  C   UNL     1      -5.994  -0.661 -30.714  1.00  0.00     0.016 C 
BRANCH  21  22
ATOM     22  C   UNL     1      -4.842  -0.187 -29.936  1.00  0.00    -0.021 A 
ATOM     23  C   UNL     1      -4.817   1.088 -29.348  1.00  0.00     0.058 A 
ATOM     24  C   UNL     1      -3.762  -1.061 -29.730  1.00  0.00     0.012 A 
ATOM     25  C   UNL     1      -3.714   1.473 -28.592  1.00  0.00     0.157 A 
ATOM     26  C   UNL     1      -2.657  -0.664 -28.971  1.00  0.00     0.051 A 
ATOM     27  C   UNL     1      -2.644   0.603 -28.410  1.00  0.00     0.157 A 
BRANCH  25  28
ATOM     28  O   UNL     1      -3.638   2.704 -27.999  1.00  0.00    -0.504 OA
ATOM     29  H   UNL     1      -3.736   2.587 -27.038  1.00  0.00     0.293 HD
ENDBRANCH  25  28
BRANCH  27  30
ATOM     30  O   UNL     1      -1.567   0.991 -27.666  1.00  0.00    -0.504 OA
ATOM     31  H   UNL     1      -1.785   0.711 -26.755  1.00  0.00     0.293 HD
ENDBRANCH  27  30
ENDBRANCH  21  22
ENDBRANCH   1  20
TORSDOF 11
ENDMDL
