MODEL 1
REMARK VINA RESULT:      -6.2      0.000      0.000
REMARK SMILES C=C(C)c1ccccc1
REMARK SMILES IDX 3 1 2 2 1 3 4 4 5 5 9 6 6 7 8 8 7 9
REMARK H PARENT
ROOT
ATOM      1  C   UNL     1       5.129  -1.640 -23.968  1.00  0.00     0.044 C 
ATOM      2  C   UNL     1       4.403  -0.934 -25.080  1.00  0.00    -0.051 C 
ATOM      3  C   UNL     1       3.061  -0.908 -25.135  1.00  0.00     0.013 C 
ENDROOT
BRANCH   2   4
ATOM      4  C   UNL     1       5.219  -0.277 -26.127  1.00  0.00    -0.023 A 
ATOM      5  C   UNL     1       5.027  -0.577 -27.485  1.00  0.00     0.008 A 
ATOM      6  C   UNL     1       6.184   0.684 -25.789  1.00  0.00     0.008 A 
ATOM      7  C   UNL     1       5.784   0.055 -28.474  1.00  0.00     0.001 A 
ATOM      8  C   UNL     1       6.943   1.317 -26.779  1.00  0.00     0.001 A 
ATOM      9  C   UNL     1       6.743   1.002 -28.121  1.00  0.00     0.000 A 
ENDBRANCH   2   4
TORSDOF 1
ENDMDL
MODEL 2
REMARK VINA RESULT:      -6.1      0.030      1.606
REMARK SMILES C=C(C)c1ccccc1
REMARK SMILES IDX 3 1 2 2 1 3 4 4 5 5 9 6 6 7 8 8 7 9
REMARK H PARENT
ROOT
ATOM      1  C   UNL     1       5.150  -1.618 -23.994  1.00  0.00     0.044 C 
ATOM      2  C   UNL     1       4.408  -0.912 -25.096  1.00  0.00    -0.051 C 
ATOM      3  C   UNL     1       3.065  -0.897 -25.138  1.00  0.00     0.013 C 
ENDROOT
BRANCH   2   4
ATOM      4  C   UNL     1       5.209  -0.243 -26.146  1.00  0.00    -0.023 A 
ATOM      5  C   UNL     1       6.198   0.695 -25.810  1.00  0.00     0.008 A 
ATOM      6  C   UNL     1       5.019  -0.550 -27.501  1.00  0.00     0.008 A 
ATOM      7  C   UNL     1       6.967   1.314 -26.799  1.00  0.00     0.001 A 
ATOM      8  C   UNL     1       5.787   0.070 -28.492  1.00  0.00     0.001 A 
ATOM      9  C   UNL     1       6.760   1.003 -28.140  1.00  0.00     0.000 A 
ENDBRANCH   2   4
TORSDOF 1
ENDMDL
MODEL 3
REMARK VINA RESULT:      -6.1      1.909      3.454
REMARK SMILES C=C(C)c1ccccc1
REMARK SMILES IDX 3 1 2 2 1 3 4 4 5 5 9 6 6 7 8 8 7 9
REMARK H PARENT
ROOT
ATOM      1  C   UNL     1       4.165  -3.725 -22.152  1.00  0.00     0.044 C 
ATOM      2  C   UNL     1       4.917  -2.453 -22.428  1.00  0.00    -0.051 C 
ATOM      3  C   UNL     1       5.814  -1.965 -21.555  1.00  0.00     0.013 C 
ENDROOT
BRANCH   2   4
ATOM      4  C   UNL     1       4.627  -1.743 -23.695  1.00  0.00    -0.023 A 
ATOM      5  C   UNL     1       3.305  -1.578 -24.141  1.00  0.00     0.008 A 
ATOM      6  C   UNL     1       5.661  -1.193 -24.465  1.00  0.00     0.008 A 
ATOM      7  C   UNL     1       3.028  -0.892 -25.326  1.00  0.00     0.001 A 
ATOM      8  C   UNL     1       5.385  -0.507 -25.652  1.00  0.00     0.001 A 
ATOM      9  C   UNL     1       4.069  -0.358 -26.083  1.00  0.00     0.000 A 
ENDBRANCH   2   4
TORSDOF 1
ENDMDL
MODEL 4
REMARK VINA RESULT:      -6.1      5.907      8.470
REMARK SMILES C=C(C)c1ccccc1
REMARK SMILES IDX 3 1 2 2 1 3 4 4 5 5 9 6 6 7 8 8 7 9
REMARK H PARENT
ROOT
ATOM      1  C   UNL     1       5.613  -1.795 -21.158  1.00  0.00     0.044 C 
ATOM      2  C   UNL     1       6.734  -2.254 -20.267  1.00  0.00    -0.051 C 
ATOM      3  C   UNL     1       7.489  -3.321 -20.583  1.00  0.00     0.013 C 
ENDROOT
BRANCH   2   4
ATOM      4  C   UNL     1       6.973  -1.499 -19.017  1.00  0.00    -0.023 A 
ATOM      5  C   UNL     1       6.208  -1.750 -17.866  1.00  0.00     0.008 A 
ATOM      6  C   UNL     1       7.987  -0.534 -18.942  1.00  0.00     0.008 A 
ATOM      7  C   UNL     1       6.444  -1.051 -16.680  1.00  0.00     0.001 A 
ATOM      8  C   UNL     1       8.223   0.168 -17.755  1.00  0.00     0.001 A 
ATOM      9  C   UNL     1       7.451  -0.090 -16.625  1.00  0.00     0.000 A 
ENDBRANCH   2   4
TORSDOF 1
ENDMDL
MODEL 5
REMARK VINA RESULT:      -6.1      5.912      8.518
REMARK SMILES C=C(C)c1ccccc1
REMARK SMILES IDX 3 1 2 2 1 3 4 4 5 5 9 6 6 7 8 8 7 9
REMARK H PARENT
ROOT
ATOM      1  C   UNL     1       5.615  -1.775 -21.141  1.00  0.00     0.044 C 
ATOM      2  C   UNL     1       6.734  -2.255 -20.258  1.00  0.00    -0.051 C 
ATOM      3  C   UNL     1       7.473  -3.329 -20.585  1.00  0.00     0.013 C 
ENDROOT
BRANCH   2   4
ATOM      4  C   UNL     1       6.988  -1.511 -19.003  1.00  0.00    -0.023 A 
ATOM      5  C   UNL     1       7.990  -0.529 -18.938  1.00  0.00     0.008 A 
ATOM      6  C   UNL     1       6.216  -1.749 -17.858  1.00  0.00     0.008 A 
ATOM      7  C   UNL     1       8.219   0.186 -17.760  1.00  0.00     0.001 A 
ATOM      8  C   UNL     1       6.445  -1.035 -16.677  1.00  0.00     0.001 A 
ATOM      9  C   UNL     1       7.447  -0.068 -16.628  1.00  0.00     0.000 A 
ENDBRANCH   2   4
TORSDOF 1
ENDMDL
MODEL 6
REMARK VINA RESULT:      -5.6      1.828      4.850
REMARK SMILES C=C(C)c1ccccc1
REMARK SMILES IDX 3 1 2 2 1 3 4 4 5 5 9 6 6 7 8 8 7 9
REMARK H PARENT
ROOT
ATOM      1  C   UNL     1       5.583  -0.420 -25.645  1.00  0.00     0.044 C 
ATOM      2  C   UNL     1       4.415  -1.051 -24.939  1.00  0.00    -0.051 C 
ATOM      3  C   UNL     1       3.166  -0.954 -25.426  1.00  0.00     0.013 C 
ENDROOT
BRANCH   2   4
ATOM      4  C   UNL     1       4.683  -1.774 -23.675  1.00  0.00    -0.023 A 
ATOM      5  C   UNL     1       3.940  -2.913 -23.325  1.00  0.00     0.008 A 
ATOM      6  C   UNL     1       5.704  -1.357 -22.810  1.00  0.00     0.008 A 
ATOM      7  C   UNL     1       4.203  -3.607 -22.142  1.00  0.00     0.001 A 
ATOM      8  C   UNL     1       5.968  -2.050 -21.624  1.00  0.00     0.001 A 
ATOM      9  C   UNL     1       5.217  -3.174 -21.290  1.00  0.00     0.000 A 
ENDBRANCH   2   4
TORSDOF 1
ENDMDL
MODEL 7
REMARK VINA RESULT:      -5.4      7.207      9.164
REMARK SMILES C=C(C)c1ccccc1
REMARK SMILES IDX 3 1 2 2 1 3 4 4 5 5 9 6 6 7 8 8 7 9
REMARK H PARENT
ROOT
ATOM      1  C   UNL     1       8.638  -0.244 -15.767  1.00  0.00     0.044 C 
ATOM      2  C   UNL     1       7.636   0.121 -16.828  1.00  0.00    -0.051 C 
ATOM      3  C   UNL     1       7.212   1.386 -16.986  1.00  0.00     0.013 C 
ENDROOT
BRANCH   2   4
ATOM      4  C   UNL     1       7.119  -0.967 -17.690  1.00  0.00    -0.023 A 
ATOM      5  C   UNL     1       7.422  -1.006 -19.060  1.00  0.00     0.008 A 
ATOM      6  C   UNL     1       6.338  -2.000 -17.153  1.00  0.00     0.008 A 
ATOM      7  C   UNL     1       6.950  -2.041 -19.871  1.00  0.00     0.001 A 
ATOM      8  C   UNL     1       5.864  -3.036 -17.964  1.00  0.00     0.001 A 
ATOM      9  C   UNL     1       6.169  -3.056 -19.322  1.00  0.00     0.000 A 
ENDBRANCH   2   4
TORSDOF 1
ENDMDL
MODEL 8
REMARK VINA RESULT:      -5.3      7.816     10.062
REMARK SMILES C=C(C)c1ccccc1
REMARK SMILES IDX 3 1 2 2 1 3 4 4 5 5 9 6 6 7 8 8 7 9
REMARK H PARENT
ROOT
ATOM      1  C   UNL     1      10.529  -0.366 -15.734  1.00  0.00     0.044 C 
ATOM      2  C   UNL     1       9.275   0.371 -16.114  1.00  0.00    -0.051 C 
ATOM      3  C   UNL     1       9.044   1.626 -15.692  1.00  0.00     0.013 C 
ENDROOT
BRANCH   2   4
ATOM      4  C   UNL     1       8.288  -0.338 -16.961  1.00  0.00    -0.023 A 
ATOM      5  C   UNL     1       7.176  -0.978 -16.389  1.00  0.00     0.008 A 
ATOM      6  C   UNL     1       8.425  -0.364 -18.356  1.00  0.00     0.008 A 
ATOM      7  C   UNL     1       6.235  -1.632 -17.188  1.00  0.00     0.001 A 
ATOM      8  C   UNL     1       7.484  -1.020 -19.156  1.00  0.00     0.001 A 
ATOM      9  C   UNL     1       6.390  -1.655 -18.572  1.00  0.00     0.000 A 
ENDBRANCH   2   4
TORSDOF 1
ENDMDL
MODEL 9
REMARK VINA RESULT:      -5.3      7.846     10.116
REMARK SMILES C=C(C)c1ccccc1
REMARK SMILES IDX 3 1 2 2 1 3 4 4 5 5 9 6 6 7 8 8 7 9
REMARK H PARENT
ROOT
ATOM      1  C   UNL     1       9.233   1.601 -15.686  1.00  0.00     0.044 C 
ATOM      2  C   UNL     1       9.322   0.132 -15.995  1.00  0.00    -0.051 C 
ATOM      3  C   UNL     1      10.299  -0.634 -15.482  1.00  0.00     0.013 C 
ENDROOT
BRANCH   2   4
ATOM      4  C   UNL     1       8.302  -0.443 -16.901  1.00  0.00    -0.023 A 
ATOM      5  C   UNL     1       8.469  -0.401 -18.294  1.00  0.00     0.008 A 
ATOM      6  C   UNL     1       7.157  -1.071 -16.389  1.00  0.00     0.008 A 
ATOM      7  C   UNL     1       7.516  -0.959 -19.150  1.00  0.00     0.001 A 
ATOM      8  C   UNL     1       6.202  -1.629 -17.244  1.00  0.00     0.001 A 
ATOM      9  C   UNL     1       6.381  -1.572 -18.624  1.00  0.00     0.000 A 
ENDBRANCH   2   4
TORSDOF 1
ENDMDL
MODEL 10
REMARK VINA RESULT:      -5.3     11.268     12.240
REMARK SMILES C=C(C)c1ccccc1
REMARK SMILES IDX 3 1 2 2 1 3 4 4 5 5 9 6 6 7 8 8 7 9
REMARK H PARENT
ROOT
ATOM      1  C   UNL     1       1.467 -10.732 -24.485  1.00  0.00     0.044 C 
ATOM      2  C   UNL     1       0.604 -11.500 -25.447  1.00  0.00    -0.051 C 
ATOM      3  C   UNL     1       0.720 -12.832 -25.582  1.00  0.00     0.013 C 
ENDROOT
BRANCH   2   4
ATOM      4  C   UNL     1      -0.375 -10.737 -26.255  1.00  0.00    -0.023 A 
ATOM      5  C   UNL     1      -0.975 -11.309 -27.388  1.00  0.00     0.008 A 
ATOM      6  C   UNL     1      -0.749  -9.436 -25.891  1.00  0.00     0.008 A 
ATOM      7  C   UNL     1      -1.911 -10.597 -28.141  1.00  0.00     0.001 A 
ATOM      8  C   UNL     1      -1.686  -8.721 -26.645  1.00  0.00     0.001 A 
ATOM      9  C   UNL     1      -2.266  -9.302 -27.770  1.00  0.00     0.000 A 
ENDBRANCH   2   4
TORSDOF 1
ENDMDL
