MODEL 1
REMARK VINA RESULT:      -6.9      0.000      0.000
REMARK SMILES O=C(O)/C=C\c1ccc(O)cc1
REMARK SMILES IDX 5 1 4 2 6 3 7 4 8 5 9 6 12 7 11 8 10 9 2 11 1 12 3 13
REMARK H PARENT 10 10 3 14
ROOT
ATOM      1  C   UNL     1      -3.566  -8.832 -27.483  1.00  0.00     0.015 C 
ATOM      2  C   UNL     1      -4.840  -9.104 -27.158  1.00  0.00     0.094 C 
ENDROOT
BRANCH   1   3
ATOM      3  C   UNL     1      -2.372  -9.623 -27.175  1.00  0.00    -0.025 A 
ATOM      4  C   UNL     1      -1.448  -9.211 -26.205  1.00  0.00     0.012 A 
ATOM      5  C   UNL     1      -0.314  -9.982 -25.934  1.00  0.00     0.047 A 
ATOM      6  C   UNL     1      -0.102 -11.158 -26.646  1.00  0.00     0.115 A 
ATOM      7  C   UNL     1      -2.132 -10.800 -27.893  1.00  0.00     0.012 A 
ATOM      8  C   UNL     1      -0.998 -11.570 -27.623  1.00  0.00     0.047 A 
BRANCH   6   9
ATOM      9  O   UNL     1       0.989 -11.941 -26.415  1.00  0.00    -0.508 OA
ATOM     10  H   UNL     1       0.877 -12.390 -25.560  1.00  0.00     0.293 HD
ENDBRANCH   6   9
ENDBRANCH   1   3
BRANCH   2  11
ATOM     11  C   UNL     1      -5.395 -10.271 -26.449  1.00  0.00     0.328 C 
ATOM     12  O   UNL     1      -5.236 -11.407 -26.864  1.00  0.00    -0.247 OA
BRANCH  11  13
ATOM     13  O   UNL     1      -6.001  -9.990 -25.283  1.00  0.00    -0.478 OA
ATOM     14  H   UNL     1      -6.563  -9.192 -25.308  1.00  0.00     0.297 HD
ENDBRANCH  11  13
ENDBRANCH   2  11
TORSDOF 4
ENDMDL
MODEL 2
REMARK VINA RESULT:      -6.5      0.954      1.891
REMARK SMILES O=C(O)/C=C\c1ccc(O)cc1
REMARK SMILES IDX 5 1 4 2 6 3 7 4 8 5 9 6 12 7 11 8 10 9 2 11 1 12 3 13
REMARK H PARENT 10 10 3 14
ROOT
ATOM      1  C   UNL     1      -4.543  -8.816 -27.140  1.00  0.00     0.015 C 
ATOM      2  C   UNL     1      -5.670  -9.432 -26.749  1.00  0.00     0.094 C 
ENDROOT
BRANCH   1   3
ATOM      3  C   UNL     1      -3.188  -9.371 -27.197  1.00  0.00    -0.025 A 
ATOM      4  C   UNL     1      -2.915 -10.571 -27.868  1.00  0.00     0.012 A 
ATOM      5  C   UNL     1      -1.614 -11.082 -27.902  1.00  0.00     0.047 A 
ATOM      6  C   UNL     1      -0.593 -10.396 -27.253  1.00  0.00     0.115 A 
ATOM      7  C   UNL     1      -2.151  -8.704 -26.535  1.00  0.00     0.012 A 
ATOM      8  C   UNL     1      -0.852  -9.215 -26.569  1.00  0.00     0.047 A 
BRANCH   6   9
ATOM      9  O   UNL     1       0.689 -10.856 -27.262  1.00  0.00    -0.508 OA
ATOM     10  H   UNL     1       0.680 -11.814 -27.102  1.00  0.00     0.293 HD
ENDBRANCH   6   9
ENDBRANCH   1   3
BRANCH   2  11
ATOM     11  C   UNL     1      -5.869 -10.826 -26.312  1.00  0.00     0.328 C 
ATOM     12  O   UNL     1      -5.684 -11.166 -25.155  1.00  0.00    -0.247 OA
BRANCH  11  13
ATOM     13  O   UNL     1      -6.349 -11.653 -27.255  1.00  0.00    -0.478 OA
ATOM     14  H   UNL     1      -6.023 -11.463 -28.155  1.00  0.00     0.297 HD
ENDBRANCH  11  13
ENDBRANCH   2  11
TORSDOF 4
ENDMDL
MODEL 3
REMARK VINA RESULT:      -5.9      9.201     10.803
REMARK SMILES O=C(O)/C=C\c1ccc(O)cc1
REMARK SMILES IDX 5 1 4 2 6 3 7 4 8 5 9 6 12 7 11 8 10 9 2 11 1 12 3 13
REMARK H PARENT 10 10 3 14
ROOT
ATOM      1  C   UNL     1      -2.166  -0.027 -28.712  1.00  0.00     0.015 C 
ATOM      2  C   UNL     1      -2.130   0.167 -30.040  1.00  0.00     0.094 C 
ENDROOT
BRANCH   1   3
ATOM      3  C   UNL     1      -3.312  -0.432 -27.893  1.00  0.00    -0.025 A 
ATOM      4  C   UNL     1      -3.806   0.384 -26.866  1.00  0.00     0.012 A 
ATOM      5  C   UNL     1      -4.897  -0.029 -26.096  1.00  0.00     0.047 A 
ATOM      6  C   UNL     1      -5.483  -1.265 -26.349  1.00  0.00     0.115 A 
ATOM      7  C   UNL     1      -3.903  -1.680 -28.120  1.00  0.00     0.012 A 
ATOM      8  C   UNL     1      -4.993  -2.093 -27.351  1.00  0.00     0.047 A 
BRANCH   6   9
ATOM      9  O   UNL     1      -6.548  -1.707 -25.625  1.00  0.00    -0.508 OA
ATOM     10  H   UNL     1      -6.521  -1.298 -24.744  1.00  0.00     0.293 HD
ENDBRANCH   6   9
ENDBRANCH   1   3
BRANCH   2  11
ATOM     11  C   UNL     1      -3.201  -0.007 -31.039  1.00  0.00     0.328 C 
ATOM     12  O   UNL     1      -4.197   0.698 -31.038  1.00  0.00    -0.247 OA
BRANCH  11  13
ATOM     13  O   UNL     1      -2.950  -0.927 -31.984  1.00  0.00    -0.478 OA
ATOM     14  H   UNL     1      -2.357  -0.618 -32.694  1.00  0.00     0.297 HD
ENDBRANCH  11  13
ENDBRANCH   2  11
TORSDOF 4
ENDMDL
MODEL 4
REMARK VINA RESULT:      -5.9     11.948     13.550
REMARK SMILES O=C(O)/C=C\c1ccc(O)cc1
REMARK SMILES IDX 5 1 4 2 6 3 7 4 8 5 9 6 12 7 11 8 10 9 2 11 1 12 3 13
REMARK H PARENT 10 10 3 14
ROOT
ATOM      1  C   UNL     1      -8.127   0.464 -33.589  1.00  0.00     0.015 C 
ATOM      2  C   UNL     1      -9.400   0.517 -34.014  1.00  0.00     0.094 C 
ENDROOT
BRANCH   1   3
ATOM      3  C   UNL     1      -7.628   0.622 -32.221  1.00  0.00    -0.025 A 
ATOM      4  C   UNL     1      -7.445   1.888 -31.647  1.00  0.00     0.012 A 
ATOM      5  C   UNL     1      -6.963   2.010 -30.341  1.00  0.00     0.047 A 
ATOM      6  C   UNL     1      -6.652   0.864 -29.617  1.00  0.00     0.115 A 
ATOM      7  C   UNL     1      -7.293  -0.519 -31.483  1.00  0.00     0.012 A 
ATOM      8  C   UNL     1      -6.811  -0.397 -30.178  1.00  0.00     0.047 A 
BRANCH   6   9
ATOM      9  O   UNL     1      -6.181   0.935 -28.341  1.00  0.00    -0.508 OA
ATOM     10  H   UNL     1      -6.805   0.481 -27.750  1.00  0.00     0.293 HD
ENDBRANCH   6   9
ENDBRANCH   1   3
BRANCH   2  11
ATOM     11  C   UNL     1     -10.637   0.707 -33.234  1.00  0.00     0.328 C 
ATOM     12  O   UNL     1     -11.333  -0.238 -32.900  1.00  0.00    -0.247 OA
BRANCH  11  13
ATOM     13  O   UNL     1     -10.880   1.972 -32.855  1.00  0.00    -0.478 OA
ATOM     14  H   UNL     1     -11.392   2.491 -33.503  1.00  0.00     0.297 HD
ENDBRANCH  11  13
ENDBRANCH   2  11
TORSDOF 4
ENDMDL
MODEL 5
REMARK VINA RESULT:      -5.8     12.083     14.134
REMARK SMILES O=C(O)/C=C\c1ccc(O)cc1
REMARK SMILES IDX 5 1 4 2 6 3 7 4 8 5 9 6 12 7 11 8 10 9 2 11 1 12 3 13
REMARK H PARENT 10 10 3 14
ROOT
ATOM      1  C   UNL     1      -6.436   2.295 -31.164  1.00  0.00     0.015 C 
ATOM      2  C   UNL     1      -5.202   1.805 -30.957  1.00  0.00     0.094 C 
ENDROOT
BRANCH   1   3
ATOM      3  C   UNL     1      -7.543   1.665 -31.887  1.00  0.00    -0.025 A 
ATOM      4  C   UNL     1      -7.434   1.319 -33.241  1.00  0.00     0.012 A 
ATOM      5  C   UNL     1      -8.508   0.724 -33.908  1.00  0.00     0.047 A 
ATOM      6  C   UNL     1      -9.694   0.489 -33.222  1.00  0.00     0.115 A 
ATOM      7  C   UNL     1      -8.751   1.438 -31.217  1.00  0.00     0.012 A 
ATOM      8  C   UNL     1      -9.825   0.844 -31.885  1.00  0.00     0.047 A 
BRANCH   6   9
ATOM      9  O   UNL     1     -10.766  -0.089 -33.831  1.00  0.00    -0.508 OA
ATOM     10  H   UNL     1     -11.173  -0.722 -33.217  1.00  0.00     0.293 HD
ENDBRANCH   6   9
ENDBRANCH   1   3
BRANCH   2  11
ATOM     11  C   UNL     1      -4.635   0.505 -31.357  1.00  0.00     0.328 C 
ATOM     12  O   UNL     1      -5.216  -0.544 -31.130  1.00  0.00    -0.247 OA
BRANCH  11  13
ATOM     13  O   UNL     1      -3.491   0.577 -32.058  1.00  0.00    -0.478 OA
ATOM     14  H   UNL     1      -2.811  -0.064 -31.777  1.00  0.00     0.297 HD
ENDBRANCH  11  13
ENDBRANCH   2  11
TORSDOF 4
ENDMDL
MODEL 6
REMARK VINA RESULT:      -5.8     15.396     17.526
REMARK SMILES O=C(O)/C=C\c1ccc(O)cc1
REMARK SMILES IDX 5 1 4 2 6 3 7 4 8 5 9 6 12 7 11 8 10 9 2 11 1 12 3 13
REMARK H PARENT 10 10 3 14
ROOT
ATOM      1  C   UNL     1       7.975   0.891 -16.733  1.00  0.00     0.015 C 
ATOM      2  C   UNL     1       9.114   0.960 -16.024  1.00  0.00     0.094 C 
ENDROOT
BRANCH   1   3
ATOM      3  C   UNL     1       7.436  -0.263 -17.457  1.00  0.00    -0.025 A 
ATOM      4  C   UNL     1       6.555  -1.167 -16.847  1.00  0.00     0.012 A 
ATOM      5  C   UNL     1       6.060  -2.263 -17.560  1.00  0.00     0.047 A 
ATOM      6  C   UNL     1       6.459  -2.459 -18.877  1.00  0.00     0.115 A 
ATOM      7  C   UNL     1       7.840  -0.487 -18.779  1.00  0.00     0.012 A 
ATOM      8  C   UNL     1       7.346  -1.582 -19.490  1.00  0.00     0.047 A 
BRANCH   6   9
ATOM      9  O   UNL     1       6.001  -3.512 -19.609  1.00  0.00    -0.508 OA
ATOM     10  H   UNL     1       5.032  -3.543 -19.542  1.00  0.00     0.293 HD
ENDBRANCH   6   9
ENDBRANCH   1   3
BRANCH   2  11
ATOM     11  C   UNL     1      10.105  -0.094 -15.745  1.00  0.00     0.328 C 
ATOM     12  O   UNL     1       9.772  -1.194 -15.334  1.00  0.00    -0.247 OA
BRANCH  11  13
ATOM     13  O   UNL     1      11.372   0.222 -16.061  1.00  0.00    -0.478 OA
ATOM     14  H   UNL     1      12.043  -0.228 -15.513  1.00  0.00     0.297 HD
ENDBRANCH  11  13
ENDBRANCH   2  11
TORSDOF 4
ENDMDL
MODEL 7
REMARK VINA RESULT:      -5.7     21.416     22.621
REMARK SMILES O=C(O)/C=C\c1ccc(O)cc1
REMARK SMILES IDX 5 1 4 2 6 3 7 4 8 5 9 6 12 7 11 8 10 9 2 11 1 12 3 13
REMARK H PARENT 10 10 3 14
ROOT
ATOM      1  C   UNL     1       9.313   7.975 -33.938  1.00  0.00     0.015 C 
ATOM      2  C   UNL     1       9.833   7.154 -33.011  1.00  0.00     0.094 C 
ENDROOT
BRANCH   1   3
ATOM      3  C   UNL     1       7.972   8.565 -33.963  1.00  0.00    -0.025 A 
ATOM      4  C   UNL     1       7.743   9.886 -33.555  1.00  0.00     0.012 A 
ATOM      5  C   UNL     1       6.453  10.423 -33.584  1.00  0.00     0.047 A 
ATOM      6  C   UNL     1       5.392   9.631 -34.010  1.00  0.00     0.115 A 
ATOM      7  C   UNL     1       6.889   7.778 -34.372  1.00  0.00     0.012 A 
ATOM      8  C   UNL     1       5.600   8.314 -34.401  1.00  0.00     0.047 A 
BRANCH   6   9
ATOM      9  O   UNL     1       4.119  10.112 -34.056  1.00  0.00    -0.508 OA
ATOM     10  H   UNL     1       3.517   9.384 -34.284  1.00  0.00     0.293 HD
ENDBRANCH   6   9
ENDBRANCH   1   3
BRANCH   2  11
ATOM     11  C   UNL     1       9.231   6.653 -31.762  1.00  0.00     0.328 C 
ATOM     12  O   UNL     1       8.631   5.591 -31.722  1.00  0.00    -0.247 OA
BRANCH  11  13
ATOM     13  O   UNL     1       9.472   7.406 -30.676  1.00  0.00    -0.478 OA
ATOM     14  H   UNL     1       8.683   7.579 -30.128  1.00  0.00     0.297 HD
ENDBRANCH  11  13
ENDBRANCH   2  11
TORSDOF 4
ENDMDL
MODEL 8
REMARK VINA RESULT:      -5.6     15.275     17.144
REMARK SMILES O=C(O)/C=C\c1ccc(O)cc1
REMARK SMILES IDX 5 1 4 2 6 3 7 4 8 5 9 6 12 7 11 8 10 9 2 11 1 12 3 13
REMARK H PARENT 10 10 3 14
ROOT
ATOM      1  C   UNL     1       6.334  -2.052 -16.832  1.00  0.00     0.015 C 
ATOM      2  C   UNL     1       5.976  -2.669 -17.970  1.00  0.00     0.094 C 
ENDROOT
BRANCH   1   3
ATOM      3  C   UNL     1       7.339  -1.000 -16.658  1.00  0.00    -0.025 A 
ATOM      4  C   UNL     1       7.089   0.325 -17.040  1.00  0.00     0.012 A 
ATOM      5  C   UNL     1       8.068   1.308 -16.867  1.00  0.00     0.047 A 
ATOM      6  C   UNL     1       9.300   0.958 -16.326  1.00  0.00     0.115 A 
ATOM      7  C   UNL     1       8.592  -1.336 -16.132  1.00  0.00     0.012 A 
ATOM      8  C   UNL     1       9.570  -0.354 -15.960  1.00  0.00     0.047 A 
BRANCH   6   9
ATOM      9  O   UNL     1      10.283   1.883 -16.139  1.00  0.00    -0.508 OA
ATOM     10  H   UNL     1      10.199   2.571 -16.821  1.00  0.00     0.293 HD
ENDBRANCH   6   9
ENDBRANCH   1   3
BRANCH   2  11
ATOM     11  C   UNL     1       6.455  -2.443 -19.346  1.00  0.00     0.328 C 
ATOM     12  O   UNL     1       6.341  -1.357 -19.892  1.00  0.00    -0.247 OA
BRANCH  11  13
ATOM     13  O   UNL     1       7.094  -3.485 -19.903  1.00  0.00    -0.478 OA
ATOM     14  H   UNL     1       6.534  -4.028 -20.490  1.00  0.00     0.297 HD
ENDBRANCH  11  13
ENDBRANCH   2  11
TORSDOF 4
ENDMDL
MODEL 9
REMARK VINA RESULT:      -5.6     12.246     14.184
REMARK SMILES O=C(O)/C=C\c1ccc(O)cc1
REMARK SMILES IDX 5 1 4 2 6 3 7 4 8 5 9 6 12 7 11 8 10 9 2 11 1 12 3 13
REMARK H PARENT 10 10 3 14
ROOT
ATOM      1  C   UNL     1      -6.352  -0.435 -31.153  1.00  0.00     0.015 C 
ATOM      2  C   UNL     1      -5.130   0.119 -31.097  1.00  0.00     0.094 C 
ENDROOT
BRANCH   1   3
ATOM      3  C   UNL     1      -7.595   0.176 -31.629  1.00  0.00    -0.025 A 
ATOM      4  C   UNL     1      -8.686   0.385 -30.775  1.00  0.00     0.012 A 
ATOM      5  C   UNL     1      -9.862   0.965 -31.257  1.00  0.00     0.047 A 
ATOM      6  C   UNL     1      -9.948   1.323 -32.598  1.00  0.00     0.115 A 
ATOM      7  C   UNL     1      -7.707   0.527 -32.980  1.00  0.00     0.012 A 
ATOM      8  C   UNL     1      -8.882   1.106 -33.462  1.00  0.00     0.047 A 
BRANCH   6   9
ATOM      9  O   UNL     1     -11.074   1.893 -33.111  1.00  0.00    -0.508 OA
ATOM     10  H   UNL     1     -11.701   2.055 -32.386  1.00  0.00     0.293 HD
ENDBRANCH   6   9
ENDBRANCH   1   3
BRANCH   2  11
ATOM     11  C   UNL     1      -4.691   1.459 -31.527  1.00  0.00     0.328 C 
ATOM     12  O   UNL     1      -5.037   2.467 -30.932  1.00  0.00    -0.247 OA
BRANCH  11  13
ATOM     13  O   UNL     1      -3.824   1.470 -32.553  1.00  0.00    -0.478 OA
ATOM     14  H   UNL     1      -4.245   1.417 -33.432  1.00  0.00     0.297 HD
ENDBRANCH  11  13
ENDBRANCH   2  11
TORSDOF 4
ENDMDL
MODEL 10
REMARK VINA RESULT:      -5.6     12.549     13.591
REMARK SMILES O=C(O)/C=C\c1ccc(O)cc1
REMARK SMILES IDX 5 1 4 2 6 3 7 4 8 5 9 6 12 7 11 8 10 9 2 11 1 12 3 13
REMARK H PARENT 10 10 3 14
ROOT
ATOM      1  C   UNL     1      -9.453  -0.033 -30.689  1.00  0.00     0.015 C 
ATOM      2  C   UNL     1     -10.496  -0.028 -31.535  1.00  0.00     0.094 C 
ENDROOT
BRANCH   1   3
ATOM      3  C   UNL     1      -8.103   0.488 -30.923  1.00  0.00    -0.025 A 
ATOM      4  C   UNL     1      -7.043  -0.354 -31.284  1.00  0.00     0.012 A 
ATOM      5  C   UNL     1      -5.764   0.168 -31.496  1.00  0.00     0.047 A 
ATOM      6  C   UNL     1      -5.547   1.532 -31.332  1.00  0.00     0.115 A 
ATOM      7  C   UNL     1      -7.862   1.856 -30.746  1.00  0.00     0.012 A 
ATOM      8  C   UNL     1      -6.584   2.377 -30.957  1.00  0.00     0.047 A 
BRANCH   6   9
ATOM      9  O   UNL     1      -4.318   2.085 -31.529  1.00  0.00    -0.508 OA
ATOM     10  H   UNL     1      -4.194   2.242 -32.480  1.00  0.00     0.293 HD
ENDBRANCH   6   9
ENDBRANCH   1   3
BRANCH   2  11
ATOM     11  C   UNL     1     -10.590   0.525 -32.898  1.00  0.00     0.328 C 
ATOM     12  O   UNL     1     -10.463  -0.180 -33.886  1.00  0.00    -0.247 OA
BRANCH  11  13
ATOM     13  O   UNL     1     -10.911   1.828 -32.960  1.00  0.00    -0.478 OA
ATOM     14  H   UNL     1     -10.144   2.430 -32.921  1.00  0.00     0.297 HD
ENDBRANCH  11  13
ENDBRANCH   2  11
TORSDOF 4
ENDMDL
