MODEL 1
REMARK VINA RESULT:      -5.3      0.000      0.000
REMARK SMILES Cc1ccccc1C
REMARK SMILES IDX 1 1 2 2 3 3 4 4 5 5 6 6 7 7 8 8
REMARK H PARENT
ROOT
ATOM      1  C   UNL     1      -5.004  -2.339 -27.661  1.00  0.00     0.044 C 
ATOM      2  C   UNL     1      -4.025  -1.213 -27.844  1.00  0.00    -0.048 A 
ATOM      3  C   UNL     1      -3.181  -1.212 -28.967  1.00  0.00     0.003 A 
ATOM      4  C   UNL     1      -2.261  -0.183 -29.167  1.00  0.00     0.000 A 
ATOM      5  C   UNL     1      -2.173   0.858 -28.248  1.00  0.00     0.000 A 
ATOM      6  C   UNL     1      -3.004   0.870 -27.128  1.00  0.00     0.003 A 
ATOM      7  C   UNL     1      -3.934  -0.159 -26.913  1.00  0.00    -0.048 A 
ATOM      8  C   UNL     1      -4.813  -0.112 -25.693  1.00  0.00     0.044 C 
ENDROOT
TORSDOF 0
ENDMDL
MODEL 2
REMARK VINA RESULT:      -5.3      0.055      2.267
REMARK SMILES Cc1ccccc1C
REMARK SMILES IDX 1 1 2 2 3 3 4 4 5 5 6 6 7 7 8 8
REMARK H PARENT
ROOT
ATOM      1  C   UNL     1      -4.864  -0.129 -25.673  1.00  0.00     0.044 C 
ATOM      2  C   UNL     1      -3.971  -0.181 -26.881  1.00  0.00    -0.048 A 
ATOM      3  C   UNL     1      -3.032   0.843 -27.086  1.00  0.00     0.003 A 
ATOM      4  C   UNL     1      -2.188   0.826 -28.197  1.00  0.00     0.000 A 
ATOM      5  C   UNL     1      -2.271  -0.215 -29.115  1.00  0.00     0.000 A 
ATOM      6  C   UNL     1      -3.199  -1.239 -28.926  1.00  0.00     0.003 A 
ATOM      7  C   UNL     1      -4.056  -1.235 -27.814  1.00  0.00    -0.048 A 
ATOM      8  C   UNL     1      -5.045  -2.355 -27.643  1.00  0.00     0.044 C 
ENDROOT
TORSDOF 0
ENDMDL
MODEL 3
REMARK VINA RESULT:      -5.0     13.596     14.292
REMARK SMILES Cc1ccccc1C
REMARK SMILES IDX 1 1 2 2 3 3 4 4 5 5 6 6 7 7 8 8
REMARK H PARENT
ROOT
ATOM      1  C   UNL     1       5.550  -3.677 -18.036  1.00  0.00     0.044 C 
ATOM      2  C   UNL     1       6.313  -2.382 -18.004  1.00  0.00    -0.048 A 
ATOM      3  C   UNL     1       6.357  -1.640 -16.812  1.00  0.00     0.003 A 
ATOM      4  C   UNL     1       7.056  -0.434 -16.748  1.00  0.00     0.000 A 
ATOM      5  C   UNL     1       7.719   0.045 -17.873  1.00  0.00     0.000 A 
ATOM      6  C   UNL     1       7.683  -0.681 -19.063  1.00  0.00     0.003 A 
ATOM      7  C   UNL     1       6.984  -1.895 -19.144  1.00  0.00    -0.048 A 
ATOM      8  C   UNL     1       6.967  -2.650 -20.446  1.00  0.00     0.044 C 
ENDROOT
TORSDOF 0
ENDMDL
MODEL 4
REMARK VINA RESULT:      -5.0      0.883      3.557
REMARK SMILES Cc1ccccc1C
REMARK SMILES IDX 1 1 2 2 3 3 4 4 5 5 6 6 7 7 8 8
REMARK H PARENT
ROOT
ATOM      1  C   UNL     1      -2.570   1.798 -27.738  1.00  0.00     0.044 C 
ATOM      2  C   UNL     1      -3.185   0.429 -27.819  1.00  0.00    -0.048 A 
ATOM      3  C   UNL     1      -4.096   0.025 -26.828  1.00  0.00     0.003 A 
ATOM      4  C   UNL     1      -4.685  -1.239 -26.873  1.00  0.00     0.000 A 
ATOM      5  C   UNL     1      -4.372  -2.114 -27.907  1.00  0.00     0.000 A 
ATOM      6  C   UNL     1      -3.469  -1.728 -28.897  1.00  0.00     0.003 A 
ATOM      7  C   UNL     1      -2.867  -0.460 -28.866  1.00  0.00    -0.048 A 
ATOM      8  C   UNL     1      -1.897  -0.079 -29.951  1.00  0.00     0.044 C 
ENDROOT
TORSDOF 0
ENDMDL
MODEL 5
REMARK VINA RESULT:      -5.0      0.894      2.791
REMARK SMILES Cc1ccccc1C
REMARK SMILES IDX 1 1 2 2 3 3 4 4 5 5 6 6 7 7 8 8
REMARK H PARENT
ROOT
ATOM      1  C   UNL     1      -1.909  -0.033 -29.946  1.00  0.00     0.044 C 
ATOM      2  C   UNL     1      -2.882  -0.426 -28.870  1.00  0.00    -0.048 A 
ATOM      3  C   UNL     1      -3.451  -1.710 -28.893  1.00  0.00     0.003 A 
ATOM      4  C   UNL     1      -4.358  -2.107 -27.909  1.00  0.00     0.000 A 
ATOM      5  C   UNL     1      -4.705  -1.226 -26.890  1.00  0.00     0.000 A 
ATOM      6  C   UNL     1      -4.149   0.052 -26.854  1.00  0.00     0.003 A 
ATOM      7  C   UNL     1      -3.237   0.467 -27.837  1.00  0.00    -0.048 A 
ATOM      8  C   UNL     1      -2.658   1.853 -27.766  1.00  0.00     0.044 C 
ENDROOT
TORSDOF 0
ENDMDL
MODEL 6
REMARK VINA RESULT:      -4.8     13.427     14.127
REMARK SMILES Cc1ccccc1C
REMARK SMILES IDX 1 1 2 2 3 3 4 4 5 5 6 6 7 7 8 8
REMARK H PARENT
ROOT
ATOM      1  C   UNL     1       7.848   0.247 -17.923  1.00  0.00     0.044 C 
ATOM      2  C   UNL     1       7.197  -1.009 -18.431  1.00  0.00    -0.048 A 
ATOM      3  C   UNL     1       7.270  -1.316 -19.800  1.00  0.00     0.003 A 
ATOM      4  C   UNL     1       6.677  -2.474 -20.304  1.00  0.00     0.000 A 
ATOM      5  C   UNL     1       6.004  -3.339 -19.448  1.00  0.00     0.000 A 
ATOM      6  C   UNL     1       5.922  -3.046 -18.087  1.00  0.00     0.003 A 
ATOM      7  C   UNL     1       6.513  -1.885 -17.564  1.00  0.00    -0.048 A 
ATOM      8  C   UNL     1       6.403  -1.603 -16.090  1.00  0.00     0.044 C 
ENDROOT
TORSDOF 0
ENDMDL
MODEL 7
REMARK VINA RESULT:      -4.8      8.448     10.116
REMARK SMILES Cc1ccccc1C
REMARK SMILES IDX 1 1 2 2 3 3 4 4 5 5 6 6 7 7 8 8
REMARK H PARENT
ROOT
ATOM      1  C   UNL     1       0.407 -10.057 -25.893  1.00  0.00     0.044 C 
ATOM      2  C   UNL     1      -0.895  -9.768 -26.585  1.00  0.00    -0.048 A 
ATOM      3  C   UNL     1      -1.538  -8.540 -26.356  1.00  0.00     0.003 A 
ATOM      4  C   UNL     1      -2.748  -8.239 -26.982  1.00  0.00     0.000 A 
ATOM      5  C   UNL     1      -3.330  -9.161 -27.845  1.00  0.00     0.000 A 
ATOM      6  C   UNL     1      -2.705 -10.385 -28.082  1.00  0.00     0.003 A 
ATOM      7  C   UNL     1      -1.488 -10.703 -27.459  1.00  0.00    -0.048 A 
ATOM      8  C   UNL     1      -0.843 -12.033 -27.738  1.00  0.00     0.044 C 
ENDROOT
TORSDOF 0
ENDMDL
MODEL 8
REMARK VINA RESULT:      -4.7      8.400      9.832
REMARK SMILES Cc1ccccc1C
REMARK SMILES IDX 1 1 2 2 3 3 4 4 5 5 6 6 7 7 8 8
REMARK H PARENT
ROOT
ATOM      1  C   UNL     1      -0.804 -11.965 -27.767  1.00  0.00     0.044 C 
ATOM      2  C   UNL     1      -1.487 -10.655 -27.489  1.00  0.00    -0.048 A 
ATOM      3  C   UNL     1      -2.697 -10.358 -28.138  1.00  0.00     0.003 A 
ATOM      4  C   UNL     1      -3.356  -9.152 -27.903  1.00  0.00     0.000 A 
ATOM      5  C   UNL     1      -2.815  -8.227 -27.016  1.00  0.00     0.000 A 
ATOM      6  C   UNL     1      -1.615  -8.506 -26.365  1.00  0.00     0.003 A 
ATOM      7  C   UNL     1      -0.939  -9.715 -26.591  1.00  0.00    -0.048 A 
ATOM      8  C   UNL     1       0.355  -9.982 -25.871  1.00  0.00     0.044 C 
ENDROOT
TORSDOF 0
ENDMDL
MODEL 9
REMARK VINA RESULT:      -4.7     15.083     16.308
REMARK SMILES Cc1ccccc1C
REMARK SMILES IDX 1 1 2 2 3 3 4 4 5 5 6 6 7 7 8 8
REMARK H PARENT
ROOT
ATOM      1  C   UNL     1       5.222  10.446 -33.564  1.00  0.00     0.044 C 
ATOM      2  C   UNL     1       6.559   9.800 -33.795  1.00  0.00    -0.048 A 
ATOM      3  C   UNL     1       6.613   8.456 -34.200  1.00  0.00     0.003 A 
ATOM      4  C   UNL     1       7.838   7.826 -34.424  1.00  0.00     0.000 A 
ATOM      5  C   UNL     1       9.023   8.532 -34.247  1.00  0.00     0.000 A 
ATOM      6  C   UNL     1       8.986   9.866 -33.844  1.00  0.00     0.003 A 
ATOM      7  C   UNL     1       7.762  10.514 -33.614  1.00  0.00    -0.048 A 
ATOM      8  C   UNL     1       7.761  11.954 -33.180  1.00  0.00     0.044 C 
ENDROOT
TORSDOF 0
ENDMDL
MODEL 10
REMARK VINA RESULT:      -4.6     15.064     16.371
REMARK SMILES Cc1ccccc1C
REMARK SMILES IDX 1 1 2 2 3 3 4 4 5 5 6 6 7 7 8 8
REMARK H PARENT
ROOT
ATOM      1  C   UNL     1       7.786  11.906 -33.160  1.00  0.00     0.044 C 
ATOM      2  C   UNL     1       7.780  10.470 -33.606  1.00  0.00    -0.048 A 
ATOM      3  C   UNL     1       9.001   9.821 -33.853  1.00  0.00     0.003 A 
ATOM      4  C   UNL     1       9.031   8.490 -34.268  1.00  0.00     0.000 A 
ATOM      5  C   UNL     1       7.841   7.790 -34.439  1.00  0.00     0.000 A 
ATOM      6  C   UNL     1       6.621   8.420 -34.198  1.00  0.00     0.003 A 
ATOM      7  C   UNL     1       6.574   9.760 -33.782  1.00  0.00    -0.048 A 
ATOM      8  C   UNL     1       5.240  10.407 -33.532  1.00  0.00     0.044 C 
ENDROOT
TORSDOF 0
ENDMDL
