MODEL 1
REMARK VINA RESULT:      -6.8      0.000      0.000
REMARK SMILES O=C(O)/C(F)=C\c1ccc(O)cc1
REMARK SMILES IDX 6 1 4 2 5 3 7 4 8 5 9 6 10 7 13 8 12 9 11 10 2 12 1 13 3 14
REMARK H PARENT 11 11 3 15
ROOT
ATOM      1  C   UNL     1       0.756 -10.278 -25.184  1.00  0.00     0.055 C 
ATOM      2  C   UNL     1       1.291 -11.428 -24.754  1.00  0.00     0.208 C 
ATOM      3  F   UNL     1       2.313 -11.360 -23.866  1.00  0.00    -0.199 F 
ENDROOT
BRANCH   1   4
ATOM      4  C   UNL     1      -0.348 -10.081 -26.128  1.00  0.00    -0.022 A 
ATOM      5  C   UNL     1      -0.652 -11.018 -27.124  1.00  0.00     0.012 A 
ATOM      6  C   UNL     1      -1.685 -10.779 -28.035  1.00  0.00     0.047 A 
ATOM      7  C   UNL     1      -2.401  -9.590 -27.961  1.00  0.00     0.115 A 
ATOM      8  C   UNL     1      -1.071  -8.882 -26.081  1.00  0.00     0.012 A 
ATOM      9  C   UNL     1      -2.100  -8.639 -26.995  1.00  0.00     0.047 A 
BRANCH   7  10
ATOM     10  O   UNL     1      -3.415  -9.315 -28.829  1.00  0.00    -0.508 OA
ATOM     11  H   UNL     1      -3.784 -10.157 -29.146  1.00  0.00     0.293 HD
ENDBRANCH   7  10
ENDBRANCH   1   4
BRANCH   2  12
ATOM     12  C   UNL     1       0.907 -12.822 -25.095  1.00  0.00     0.364 C 
ATOM     13  O   UNL     1       1.162 -13.415 -26.127  1.00  0.00    -0.244 OA
BRANCH  12  14
ATOM     14  O   UNL     1       0.213 -13.389 -24.078  1.00  0.00    -0.476 OA
ATOM     15  H   UNL     1       0.732 -14.073 -23.608  1.00  0.00     0.297 HD
ENDBRANCH  12  14
ENDBRANCH   2  12
TORSDOF 4
ENDMDL
MODEL 2
REMARK VINA RESULT:      -6.8     10.640     12.023
REMARK SMILES O=C(O)/C(F)=C\c1ccc(O)cc1
REMARK SMILES IDX 6 1 4 2 5 3 7 4 8 5 9 6 10 7 13 8 12 9 11 10 2 12 1 13 3 14
REMARK H PARENT 11 11 3 15
ROOT
ATOM      1  C   UNL     1      -2.312  -0.388 -29.224  1.00  0.00     0.055 C 
ATOM      2  C   UNL     1      -2.473  -0.057 -30.512  1.00  0.00     0.208 C 
ATOM      3  F   UNL     1      -1.359   0.142 -31.260  1.00  0.00    -0.199 F 
ENDROOT
BRANCH   1   4
ATOM      4  C   UNL     1      -3.341  -0.659 -28.216  1.00  0.00    -0.022 A 
ATOM      5  C   UNL     1      -3.643   0.253 -27.197  1.00  0.00     0.012 A 
ATOM      6  C   UNL     1      -4.600  -0.056 -26.226  1.00  0.00     0.047 A 
ATOM      7  C   UNL     1      -5.241  -1.288 -26.265  1.00  0.00     0.115 A 
ATOM      8  C   UNL     1      -3.986  -1.903 -28.227  1.00  0.00     0.012 A 
ATOM      9  C   UNL     1      -4.939  -2.215 -27.254  1.00  0.00     0.047 A 
BRANCH   7  10
ATOM     10  O   UNL     1      -6.180  -1.631 -25.338  1.00  0.00    -0.508 OA
ATOM     11  H   UNL     1      -6.085  -1.040 -24.572  1.00  0.00     0.293 HD
ENDBRANCH   7  10
ENDBRANCH   1   4
BRANCH   2  12
ATOM     12  C   UNL     1      -3.732   0.110 -31.284  1.00  0.00     0.364 C 
ATOM     13  O   UNL     1      -4.747  -0.550 -31.170  1.00  0.00    -0.244 OA
BRANCH  12  14
ATOM     14  O   UNL     1      -3.619   1.134 -32.165  1.00  0.00    -0.476 OA
ATOM     15  H   UNL     1      -4.468   1.346 -32.601  1.00  0.00     0.297 HD
ENDBRANCH  12  14
ENDBRANCH   2  12
TORSDOF 4
ENDMDL
MODEL 3
REMARK VINA RESULT:      -6.7      3.505      5.493
REMARK SMILES O=C(O)/C(F)=C\c1ccc(O)cc1
REMARK SMILES IDX 6 1 4 2 5 3 7 4 8 5 9 6 10 7 13 8 12 9 11 10 2 12 1 13 3 14
REMARK H PARENT 11 11 3 15
ROOT
ATOM      1  C   UNL     1      -3.883  -9.057 -27.478  1.00  0.00     0.055 C 
ATOM      2  C   UNL     1      -5.120  -9.423 -27.114  1.00  0.00     0.208 C 
ATOM      3  F   UNL     1      -6.157  -8.658 -27.534  1.00  0.00    -0.199 F 
ENDROOT
BRANCH   1   4
ATOM      4  C   UNL     1      -2.608  -9.709 -27.164  1.00  0.00    -0.022 A 
ATOM      5  C   UNL     1      -1.677  -9.138 -26.286  1.00  0.00     0.012 A 
ATOM      6  C   UNL     1      -0.452  -9.766 -26.042  1.00  0.00     0.047 A 
ATOM      7  C   UNL     1      -0.152 -10.956 -26.694  1.00  0.00     0.115 A 
ATOM      8  C   UNL     1      -2.279 -10.901 -27.822  1.00  0.00     0.012 A 
ATOM      9  C   UNL     1      -1.052 -11.526 -27.584  1.00  0.00     0.047 A 
BRANCH   7  10
ATOM     10  O   UNL     1       1.031 -11.601 -26.486  1.00  0.00    -0.508 OA
ATOM     11  H   UNL     1       0.844 -12.459 -26.068  1.00  0.00     0.293 HD
ENDBRANCH   7  10
ENDBRANCH   1   4
BRANCH   2  12
ATOM     12  C   UNL     1      -5.547 -10.597 -26.309  1.00  0.00     0.364 C 
ATOM     13  O   UNL     1      -5.516 -11.764 -26.652  1.00  0.00    -0.244 OA
BRANCH  12  14
ATOM     14  O   UNL     1      -5.990 -10.203 -25.090  1.00  0.00    -0.476 OA
ATOM     15  H   UNL     1      -5.270 -10.152 -24.430  1.00  0.00     0.297 HD
ENDBRANCH  12  14
ENDBRANCH   2  12
TORSDOF 4
ENDMDL
MODEL 4
REMARK VINA RESULT:      -6.6      2.422      3.008
REMARK SMILES O=C(O)/C(F)=C\c1ccc(O)cc1
REMARK SMILES IDX 6 1 4 2 5 3 7 4 8 5 9 6 10 7 13 8 12 9 11 10 2 12 1 13 3 14
REMARK H PARENT 11 11 3 15
ROOT
ATOM      1  C   UNL     1      -1.105  -8.720 -27.411  1.00  0.00     0.055 C 
ATOM      2  C   UNL     1       0.043  -9.308 -27.050  1.00  0.00     0.208 C 
ATOM      3  F   UNL     1       1.199  -8.635 -27.274  1.00  0.00    -0.199 F 
ENDROOT
BRANCH   1   4
ATOM      4  C   UNL     1      -2.473  -9.228 -27.275  1.00  0.00    -0.022 A 
ATOM      5  C   UNL     1      -2.800 -10.565 -27.536  1.00  0.00     0.012 A 
ATOM      6  C   UNL     1      -4.123 -11.006 -27.438  1.00  0.00     0.047 A 
ATOM      7  C   UNL     1      -5.122 -10.102 -27.097  1.00  0.00     0.115 A 
ATOM      8  C   UNL     1      -3.498  -8.330 -26.949  1.00  0.00     0.012 A 
ATOM      9  C   UNL     1      -4.821  -8.768 -26.856  1.00  0.00     0.047 A 
BRANCH   7  10
ATOM     10  O   UNL     1      -6.425 -10.489 -26.991  1.00  0.00    -0.508 OA
ATOM     11  H   UNL     1      -6.606 -11.149 -27.680  1.00  0.00     0.293 HD
ENDBRANCH   7  10
ENDBRANCH   1   4
BRANCH   2  12
ATOM     12  C   UNL     1       0.253 -10.627 -26.398  1.00  0.00     0.364 C 
ATOM     13  O   UNL     1       0.346 -11.706 -26.952  1.00  0.00    -0.244 OA
BRANCH  12  14
ATOM     14  O   UNL     1       0.340 -10.485 -25.052  1.00  0.00    -0.476 OA
ATOM     15  H   UNL     1       0.661  -9.598 -24.791  1.00  0.00     0.297 HD
ENDBRANCH  12  14
ENDBRANCH   2  12
TORSDOF 4
ENDMDL
MODEL 5
REMARK VINA RESULT:      -6.6     13.279     14.957
REMARK SMILES O=C(O)/C(F)=C\c1ccc(O)cc1
REMARK SMILES IDX 6 1 4 2 5 3 7 4 8 5 9 6 10 7 13 8 12 9 11 10 2 12 1 13 3 14
REMARK H PARENT 11 11 3 15
ROOT
ATOM      1  C   UNL     1      -6.397   2.271 -31.274  1.00  0.00     0.055 C 
ATOM      2  C   UNL     1      -5.180   1.773 -31.019  1.00  0.00     0.208 C 
ATOM      3  F   UNL     1      -4.292   2.567 -30.371  1.00  0.00    -0.199 F 
ENDROOT
BRANCH   1   4
ATOM      4  C   UNL     1      -7.526   1.623 -31.947  1.00  0.00    -0.022 A 
ATOM      5  C   UNL     1      -7.447   1.181 -33.274  1.00  0.00     0.012 A 
ATOM      6  C   UNL     1      -8.557   0.606 -33.900  1.00  0.00     0.047 A 
ATOM      7  C   UNL     1      -9.753   0.492 -33.202  1.00  0.00     0.115 A 
ATOM      8  C   UNL     1      -8.746   1.513 -31.267  1.00  0.00     0.012 A 
ATOM      9  C   UNL     1      -9.858   0.944 -31.893  1.00  0.00     0.047 A 
BRANCH   7  10
ATOM     10  O   UNL     1     -10.860  -0.062 -33.774  1.00  0.00    -0.508 OA
ATOM     11  H   UNL     1     -10.669  -0.232 -34.712  1.00  0.00     0.293 HD
ENDBRANCH   7  10
ENDBRANCH   1   4
BRANCH   2  12
ATOM     12  C   UNL     1      -4.638   0.425 -31.331  1.00  0.00     0.364 C 
ATOM     13  O   UNL     1      -5.152  -0.645 -31.062  1.00  0.00    -0.244 OA
BRANCH  12  14
ATOM     14  O   UNL     1      -3.456   0.525 -31.986  1.00  0.00    -0.476 OA
ATOM     15  H   UNL     1      -2.795  -0.121 -31.665  1.00  0.00     0.297 HD
ENDBRANCH  12  14
ENDBRANCH   2  12
TORSDOF 4
ENDMDL
MODEL 6
REMARK VINA RESULT:      -6.4     13.013     14.834
REMARK SMILES O=C(O)/C(F)=C\c1ccc(O)cc1
REMARK SMILES IDX 6 1 4 2 5 3 7 4 8 5 9 6 10 7 13 8 12 9 11 10 2 12 1 13 3 14
REMARK H PARENT 11 11 3 15
ROOT
ATOM      1  C   UNL     1      -6.351   2.117 -31.265  1.00  0.00     0.055 C 
ATOM      2  C   UNL     1      -5.208   1.480 -30.978  1.00  0.00     0.208 C 
ATOM      3  F   UNL     1      -4.219   2.189 -30.382  1.00  0.00    -0.199 F 
ENDROOT
BRANCH   1   4
ATOM      4  C   UNL     1      -7.561   1.582 -31.897  1.00  0.00    -0.022 A 
ATOM      5  C   UNL     1      -8.735   1.343 -31.172  1.00  0.00     0.012 A 
ATOM      6  C   UNL     1      -9.858   0.792 -31.797  1.00  0.00     0.047 A 
ATOM      7  C   UNL     1      -9.796   0.461 -33.145  1.00  0.00     0.115 A 
ATOM      8  C   UNL     1      -7.514   1.226 -33.251  1.00  0.00     0.012 A 
ATOM      9  C   UNL     1      -8.633   0.669 -33.876  1.00  0.00     0.047 A 
BRANCH   7  10
ATOM     10  O   UNL     1     -10.866  -0.079 -33.795  1.00  0.00    -0.508 OA
ATOM     11  H   UNL     1     -10.633  -0.981 -34.072  1.00  0.00     0.293 HD
ENDBRANCH   7  10
ENDBRANCH   1   4
BRANCH   2  12
ATOM     12  C   UNL     1      -4.852   0.055 -31.201  1.00  0.00     0.364 C 
ATOM     13  O   UNL     1      -5.512  -0.918 -30.886  1.00  0.00    -0.244 OA
BRANCH  12  14
ATOM     14  O   UNL     1      -3.656  -0.045 -31.832  1.00  0.00    -0.476 OA
ATOM     15  H   UNL     1      -3.604  -0.832 -32.411  1.00  0.00     0.297 HD
ENDBRANCH  12  14
ENDBRANCH   2  12
TORSDOF 4
ENDMDL
MODEL 7
REMARK VINA RESULT:      -6.4     15.104     16.260
REMARK SMILES O=C(O)/C(F)=C\c1ccc(O)cc1
REMARK SMILES IDX 6 1 4 2 5 3 7 4 8 5 9 6 10 7 13 8 12 9 11 10 2 12 1 13 3 14
REMARK H PARENT 11 11 3 15
ROOT
ATOM      1  C   UNL     1       7.958   0.901 -16.754  1.00  0.00     0.055 C 
ATOM      2  C   UNL     1       9.082   0.967 -16.028  1.00  0.00     0.208 C 
ATOM      3  F   UNL     1       9.402   2.155 -15.460  1.00  0.00    -0.199 F 
ENDROOT
BRANCH   1   4
ATOM      4  C   UNL     1       7.392  -0.253 -17.460  1.00  0.00    -0.022 A 
ATOM      5  C   UNL     1       6.534  -1.163 -16.829  1.00  0.00     0.012 A 
ATOM      6  C   UNL     1       6.047  -2.276 -17.519  1.00  0.00     0.047 A 
ATOM      7  C   UNL     1       6.436  -2.489 -18.836  1.00  0.00     0.115 A 
ATOM      8  C   UNL     1       7.785  -0.495 -18.782  1.00  0.00     0.012 A 
ATOM      9  C   UNL     1       7.304  -1.611 -19.472  1.00  0.00     0.047 A 
BRANCH   7  10
ATOM     10  O   UNL     1       5.985  -3.562 -19.546  1.00  0.00    -0.508 OA
ATOM     11  H   UNL     1       5.527  -3.236 -20.338  1.00  0.00     0.293 HD
ENDBRANCH   7  10
ENDBRANCH   1   4
BRANCH   2  12
ATOM     12  C   UNL     1      10.058  -0.110 -15.719  1.00  0.00     0.364 C 
ATOM     13  O   UNL     1       9.806  -1.213 -15.269  1.00  0.00    -0.244 OA
BRANCH  12  14
ATOM     14  O   UNL     1      11.319   0.290 -16.016  1.00  0.00    -0.476 OA
ATOM     15  H   UNL     1      11.335   1.118 -16.535  1.00  0.00     0.297 HD
ENDBRANCH  12  14
ENDBRANCH   2  12
TORSDOF 4
ENDMDL
MODEL 8
REMARK VINA RESULT:      -6.3     21.021     22.068
REMARK SMILES O=C(O)/C(F)=C\c1ccc(O)cc1
REMARK SMILES IDX 6 1 4 2 5 3 7 4 8 5 9 6 10 7 13 8 12 9 11 10 2 12 1 13 3 14
REMARK H PARENT 11 11 3 15
ROOT
ATOM      1  C   UNL     1       9.388   7.839 -33.942  1.00  0.00     0.055 C 
ATOM      2  C   UNL     1       9.823   6.953 -33.036  1.00  0.00     0.208 C 
ATOM      3  F   UNL     1      11.021   6.357 -33.254  1.00  0.00    -0.199 F 
ENDROOT
BRANCH   1   4
ATOM      4  C   UNL     1       8.145   8.615 -33.937  1.00  0.00    -0.022 A 
ATOM      5  C   UNL     1       8.102   9.948 -33.509  1.00  0.00     0.012 A 
ATOM      6  C   UNL     1       6.890  10.646 -33.477  1.00  0.00     0.047 A 
ATOM      7  C   UNL     1       5.719  10.000 -33.854  1.00  0.00     0.115 A 
ATOM      8  C   UNL     1       6.950   7.978 -34.297  1.00  0.00     0.012 A 
ATOM      9  C   UNL     1       5.738   8.672 -34.260  1.00  0.00     0.047 A 
BRANCH   7  10
ATOM     10  O   UNL     1       4.516  10.642 -33.837  1.00  0.00    -0.508 OA
ATOM     11  H   UNL     1       4.647  11.529 -33.463  1.00  0.00     0.293 HD
ENDBRANCH   7  10
ENDBRANCH   1   4
BRANCH   2  12
ATOM     12  C   UNL     1       9.179   6.522 -31.768  1.00  0.00     0.364 C 
ATOM     13  O   UNL     1       8.484   5.537 -31.603  1.00  0.00    -0.244 OA
BRANCH  12  14
ATOM     14  O   UNL     1       9.473   7.386 -30.765  1.00  0.00    -0.476 OA
ATOM     15  H   UNL     1      10.321   7.852 -30.912  1.00  0.00     0.297 HD
ENDBRANCH  12  14
ENDBRANCH   2  12
TORSDOF 4
ENDMDL
MODEL 9
REMARK VINA RESULT:      -6.3     10.630     11.635
REMARK SMILES O=C(O)/C(F)=C\c1ccc(O)cc1
REMARK SMILES IDX 6 1 4 2 5 3 7 4 8 5 9 6 10 7 13 8 12 9 11 10 2 12 1 13 3 14
REMARK H PARENT 11 11 3 15
ROOT
ATOM      1  C   UNL     1      -2.866  -0.977 -29.881  1.00  0.00     0.055 C 
ATOM      2  C   UNL     1      -2.135   0.099 -29.564  1.00  0.00     0.208 C 
ATOM      3  F   UNL     1      -0.980   0.304 -30.243  1.00  0.00    -0.199 F 
ENDROOT
BRANCH   1   4
ATOM      4  C   UNL     1      -4.142  -1.416 -29.307  1.00  0.00    -0.022 A 
ATOM      5  C   UNL     1      -4.237  -1.915 -28.002  1.00  0.00     0.012 A 
ATOM      6  C   UNL     1      -5.462  -2.366 -27.501  1.00  0.00     0.047 A 
ATOM      7  C   UNL     1      -6.587  -2.335 -28.316  1.00  0.00     0.115 A 
ATOM      8  C   UNL     1      -5.284  -1.410 -30.118  1.00  0.00     0.012 A 
ATOM      9  C   UNL     1      -6.508  -1.866 -29.620  1.00  0.00     0.047 A 
BRANCH   7  10
ATOM     10  O   UNL     1      -7.801  -2.766 -27.868  1.00  0.00    -0.508 OA
ATOM     11  H   UNL     1      -8.167  -2.089 -27.274  1.00  0.00     0.293 HD
ENDBRANCH   7  10
ENDBRANCH   1   4
BRANCH   2  12
ATOM     12  C   UNL     1      -2.416   1.156 -28.558  1.00  0.00     0.364 C 
ATOM     13  O   UNL     1      -3.292   1.999 -28.614  1.00  0.00    -0.244 OA
BRANCH  12  14
ATOM     14  O   UNL     1      -1.552   1.066 -27.517  1.00  0.00    -0.476 OA
ATOM     15  H   UNL     1      -1.565   1.865 -26.952  1.00  0.00     0.297 HD
ENDBRANCH  12  14
ENDBRANCH   2  12
TORSDOF 4
ENDMDL
MODEL 10
REMARK VINA RESULT:      -6.3     13.425     14.869
REMARK SMILES O=C(O)/C(F)=C\c1ccc(O)cc1
REMARK SMILES IDX 6 1 4 2 5 3 7 4 8 5 9 6 10 7 13 8 12 9 11 10 2 12 1 13 3 14
REMARK H PARENT 11 11 3 15
ROOT
ATOM      1  C   UNL     1      -6.325  -0.416 -31.187  1.00  0.00     0.055 C 
ATOM      2  C   UNL     1      -5.101   0.124 -31.113  1.00  0.00     0.208 C 
ATOM      3  F   UNL     1      -4.089  -0.658 -30.661  1.00  0.00    -0.199 F 
ENDROOT
BRANCH   1   4
ATOM      4  C   UNL     1      -7.571   0.207 -31.641  1.00  0.00    -0.022 A 
ATOM      5  C   UNL     1      -8.656   0.414 -30.779  1.00  0.00     0.012 A 
ATOM      6  C   UNL     1      -9.847   0.972 -31.256  1.00  0.00     0.047 A 
ATOM      7  C   UNL     1      -9.956   1.304 -32.601  1.00  0.00     0.115 A 
ATOM      8  C   UNL     1      -7.709   0.533 -32.997  1.00  0.00     0.012 A 
ATOM      9  C   UNL     1      -8.900   1.085 -33.475  1.00  0.00     0.047 A 
BRANCH   7  10
ATOM     10  O   UNL     1     -11.098   1.849 -33.108  1.00  0.00    -0.508 OA
ATOM     11  H   UNL     1     -10.895   2.744 -33.428  1.00  0.00     0.293 HD
ENDBRANCH   7  10
ENDBRANCH   1   4
BRANCH   2  12
ATOM     12  C   UNL     1      -4.660   1.493 -31.484  1.00  0.00     0.364 C 
ATOM     13  O   UNL     1      -5.000   2.535 -30.955  1.00  0.00    -0.244 OA
BRANCH  12  14
ATOM     14  O   UNL     1      -3.789   1.449 -32.522  1.00  0.00    -0.476 OA
ATOM     15  H   UNL     1      -3.960   0.695 -33.121  1.00  0.00     0.297 HD
ENDBRANCH  12  14
ENDBRANCH   2  12
TORSDOF 4
ENDMDL
