MODEL 1
REMARK VINA RESULT:      -7.1      0.000      0.000
REMARK SMILES CCCCCCC(=O)O
REMARK SMILES IDX 5 1 4 2 3 3 2 4 1 5 6 6 7 7 8 8 9 9
REMARK H PARENT 9 10
ROOT
ATOM      1  C   UNL     1       3.863  -2.134 -23.655  1.00  0.00     0.012 C 
ENDROOT
BRANCH   1   2
ATOM      2  C   UNL     1       4.555  -2.854 -22.497  1.00  0.00     0.001 C 
BRANCH   2   3
ATOM      3  C   UNL     1       5.650  -1.985 -21.877  1.00  0.00    -0.000 C 
BRANCH   3   4
ATOM      4  C   UNL     1       6.281  -2.666 -20.664  1.00  0.00    -0.003 C 
ATOM      5  C   UNL     1       6.639  -1.659 -19.582  1.00  0.00     0.004 C 
ENDBRANCH   3   4
ENDBRANCH   2   3
ENDBRANCH   1   2
BRANCH   1   6
ATOM      6  C   UNL     1       4.869  -1.375 -24.520  1.00  0.00     0.122 C 
BRANCH   6   7
ATOM      7  C   UNL     1       4.185  -0.547 -25.584  1.00  0.00     0.303 C 
ATOM      8  O   UNL     1       4.665  -0.244 -26.664  1.00  0.00    -0.252 OA
BRANCH   7   9
ATOM      9  O   UNL     1       2.944  -0.159 -25.210  1.00  0.00    -0.481 OA
ATOM     10  H   UNL     1       2.799   0.804 -25.267  1.00  0.00     0.296 HD
ENDBRANCH   7   9
ENDBRANCH   6   7
ENDBRANCH   1   6
TORSDOF 6
ENDMDL
MODEL 2
REMARK VINA RESULT:      -6.7      0.857      1.452
REMARK SMILES CCCCCCC(=O)O
REMARK SMILES IDX 5 1 4 2 3 3 2 4 1 5 6 6 7 7 8 8 9 9
REMARK H PARENT 9 10
ROOT
ATOM      1  C   UNL     1       4.452  -2.471 -23.046  1.00  0.00     0.012 C 
ENDROOT
BRANCH   1   2
ATOM      2  C   UNL     1       5.388  -1.988 -21.937  1.00  0.00     0.001 C 
BRANCH   2   3
ATOM      3  C   UNL     1       5.818  -3.143 -21.031  1.00  0.00    -0.000 C 
BRANCH   3   4
ATOM      4  C   UNL     1       6.995  -2.745 -20.142  1.00  0.00    -0.003 C 
ATOM      5  C   UNL     1       6.795  -1.363 -19.539  1.00  0.00     0.004 C 
ENDBRANCH   3   4
ENDBRANCH   2   3
ENDBRANCH   1   2
BRANCH   1   6
ATOM      6  C   UNL     1       4.692  -1.709 -24.348  1.00  0.00     0.122 C 
BRANCH   6   7
ATOM      7  C   UNL     1       3.451  -0.983 -24.814  1.00  0.00     0.303 C 
ATOM      8  O   UNL     1       2.302  -1.321 -24.583  1.00  0.00    -0.252 OA
BRANCH   7   9
ATOM      9  O   UNL     1       3.748   0.120 -25.541  1.00  0.00    -0.481 OA
ATOM     10  H   UNL     1       4.411  -0.036 -26.240  1.00  0.00     0.296 HD
ENDBRANCH   7   9
ENDBRANCH   6   7
ENDBRANCH   1   6
TORSDOF 6
ENDMDL
MODEL 3
REMARK VINA RESULT:      -6.4      3.605      5.383
REMARK SMILES CCCCCCC(=O)O
REMARK SMILES IDX 5 1 4 2 3 3 2 4 1 5 6 6 7 7 8 8 9 9
REMARK H PARENT 9 10
ROOT
ATOM      1  C   UNL     1       5.422  -2.094 -21.934  1.00  0.00     0.012 C 
ENDROOT
BRANCH   1   2
ATOM      2  C   UNL     1       4.365  -2.771 -22.805  1.00  0.00     0.001 C 
BRANCH   2   3
ATOM      3  C   UNL     1       3.952  -1.876 -23.975  1.00  0.00    -0.000 C 
BRANCH   3   4
ATOM      4  C   UNL     1       5.163  -1.184 -24.600  1.00  0.00    -0.003 C 
ATOM      5  C   UNL     1       4.775  -0.397 -25.842  1.00  0.00     0.004 C 
ENDBRANCH   3   4
ENDBRANCH   2   3
ENDBRANCH   1   2
BRANCH   1   6
ATOM      6  C   UNL     1       6.196  -3.115 -21.102  1.00  0.00     0.122 C 
BRANCH   6   7
ATOM      7  C   UNL     1       6.387  -2.652 -19.675  1.00  0.00     0.303 C 
ATOM      8  O   UNL     1       6.581  -1.500 -19.323  1.00  0.00    -0.252 OA
BRANCH   7   9
ATOM      9  O   UNL     1       6.320  -3.676 -18.793  1.00  0.00    -0.481 OA
ATOM     10  H   UNL     1       7.185  -4.080 -18.592  1.00  0.00     0.296 HD
ENDBRANCH   7   9
ENDBRANCH   6   7
ENDBRANCH   1   6
TORSDOF 6
ENDMDL
MODEL 4
REMARK VINA RESULT:      -6.1      4.417      6.011
REMARK SMILES CCCCCCC(=O)O
REMARK SMILES IDX 5 1 4 2 3 3 2 4 1 5 6 6 7 7 8 8 9 9
REMARK H PARENT 9 10
ROOT
ATOM      1  C   UNL     1       6.809  -2.794 -19.971  1.00  0.00     0.012 C 
ENDROOT
BRANCH   1   2
ATOM      2  C   UNL     1       5.782  -3.198 -21.029  1.00  0.00     0.001 C 
BRANCH   2   3
ATOM      3  C   UNL     1       5.446  -2.026 -21.953  1.00  0.00    -0.000 C 
BRANCH   3   4
ATOM      4  C   UNL     1       4.474  -2.447 -23.054  1.00  0.00    -0.003 C 
ATOM      5  C   UNL     1       4.702  -1.654 -24.331  1.00  0.00     0.004 C 
ENDBRANCH   3   4
ENDBRANCH   2   3
ENDBRANCH   1   2
BRANCH   1   6
ATOM      6  C   UNL     1       6.557  -1.376 -19.461  1.00  0.00     0.122 C 
BRANCH   6   7
ATOM      7  C   UNL     1       6.588  -1.306 -17.952  1.00  0.00     0.303 C 
ATOM      8  O   UNL     1       6.896  -0.326 -17.293  1.00  0.00    -0.252 OA
BRANCH   7   9
ATOM      9  O   UNL     1       6.228  -2.478 -17.378  1.00  0.00    -0.481 OA
ATOM     10  H   UNL     1       5.785  -3.095 -17.990  1.00  0.00     0.296 HD
ENDBRANCH   7   9
ENDBRANCH   6   7
ENDBRANCH   1   6
TORSDOF 6
ENDMDL
MODEL 5
REMARK VINA RESULT:      -5.9      1.819      2.764
REMARK SMILES CCCCCCC(=O)O
REMARK SMILES IDX 5 1 4 2 3 3 2 4 1 5 6 6 7 7 8 8 9 9
REMARK H PARENT 9 10
ROOT
ATOM      1  C   UNL     1       4.428  -0.379 -25.374  1.00  0.00     0.012 C 
ENDROOT
BRANCH   1   2
ATOM      2  C   UNL     1       5.061  -1.389 -24.416  1.00  0.00     0.001 C 
BRANCH   2   3
ATOM      3  C   UNL     1       3.995  -2.155 -23.631  1.00  0.00    -0.000 C 
BRANCH   3   4
ATOM      4  C   UNL     1       4.607  -2.910 -22.452  1.00  0.00    -0.003 C 
ATOM      5  C   UNL     1       5.656  -2.072 -21.738  1.00  0.00     0.004 C 
ENDBRANCH   3   4
ENDBRANCH   2   3
ENDBRANCH   1   2
BRANCH   1   6
ATOM      6  C   UNL     1       4.815  -0.668 -26.823  1.00  0.00     0.122 C 
BRANCH   6   7
ATOM      7  C   UNL     1       5.851   0.306 -27.335  1.00  0.00     0.303 C 
ATOM      8  O   UNL     1       6.586   0.990 -26.642  1.00  0.00    -0.252 OA
BRANCH   7   9
ATOM      9  O   UNL     1       5.888   0.349 -28.688  1.00  0.00    -0.481 OA
ATOM     10  H   UNL     1       6.692   0.768 -29.047  1.00  0.00     0.296 HD
ENDBRANCH   7   9
ENDBRANCH   6   7
ENDBRANCH   1   6
TORSDOF 6
ENDMDL
MODEL 6
REMARK VINA RESULT:      -5.8      4.733      6.493
REMARK SMILES CCCCCCC(=O)O
REMARK SMILES IDX 5 1 4 2 3 3 2 4 1 5 6 6 7 7 8 8 9 9
REMARK H PARENT 9 10
ROOT
ATOM      1  C   UNL     1       6.713  -1.562 -19.289  1.00  0.00     0.012 C 
ENDROOT
BRANCH   1   2
ATOM      2  C   UNL     1       6.977  -2.734 -20.235  1.00  0.00     0.001 C 
BRANCH   2   3
ATOM      3  C   UNL     1       5.740  -3.063 -21.072  1.00  0.00    -0.000 C 
BRANCH   3   4
ATOM      4  C   UNL     1       5.513  -2.018 -22.164  1.00  0.00    -0.003 C 
ATOM      5  C   UNL     1       4.468  -2.479 -23.167  1.00  0.00     0.004 C 
ENDBRANCH   3   4
ENDBRANCH   2   3
ENDBRANCH   1   2
BRANCH   1   6
ATOM      6  C   UNL     1       8.018  -0.969 -18.759  1.00  0.00     0.122 C 
BRANCH   6   7
ATOM      7  C   UNL     1       7.787  -0.091 -17.550  1.00  0.00     0.303 C 
ATOM      8  O   UNL     1       7.095  -0.376 -16.587  1.00  0.00    -0.252 OA
BRANCH   7   9
ATOM      9  O   UNL     1       8.448   1.088 -17.643  1.00  0.00    -0.481 OA
ATOM     10  H   UNL     1       9.356   1.058 -17.289  1.00  0.00     0.296 HD
ENDBRANCH   7   9
ENDBRANCH   6   7
ENDBRANCH   1   6
TORSDOF 6
ENDMDL
MODEL 7
REMARK VINA RESULT:      -5.6      2.728      5.133
REMARK SMILES CCCCCCC(=O)O
REMARK SMILES IDX 5 1 4 2 3 3 2 4 1 5 6 6 7 7 8 8 9 9
REMARK H PARENT 9 10
ROOT
ATOM      1  C   UNL     1       4.127  -1.722 -24.861  1.00  0.00     0.012 C 
ENDROOT
BRANCH   1   2
ATOM      2  C   UNL     1       4.073  -0.620 -25.920  1.00  0.00     0.001 C 
BRANCH   2   3
ATOM      3  C   UNL     1       5.444   0.030 -26.117  1.00  0.00    -0.000 C 
BRANCH   3   4
ATOM      4  C   UNL     1       5.988  -0.232 -27.521  1.00  0.00    -0.003 C 
ATOM      5  C   UNL     1       6.343   1.065 -28.231  1.00  0.00     0.004 C 
ENDBRANCH   3   4
ENDBRANCH   2   3
ENDBRANCH   1   2
BRANCH   1   6
ATOM      6  C   UNL     1       5.218  -1.447 -23.827  1.00  0.00     0.122 C 
BRANCH   6   7
ATOM      7  C   UNL     1       5.013  -2.253 -22.564  1.00  0.00     0.303 C 
ATOM      8  O   UNL     1       5.593  -2.073 -21.506  1.00  0.00    -0.252 OA
BRANCH   7   9
ATOM      9  O   UNL     1       4.092  -3.232 -22.727  1.00  0.00    -0.481 OA
ATOM     10  H   UNL     1       3.276  -2.934 -23.170  1.00  0.00     0.296 HD
ENDBRANCH   7   9
ENDBRANCH   6   7
ENDBRANCH   1   6
TORSDOF 6
ENDMDL
MODEL 8
REMARK VINA RESULT:      -5.5     11.956     13.135
REMARK SMILES CCCCCCC(=O)O
REMARK SMILES IDX 5 1 4 2 3 3 2 4 1 5 6 6 7 7 8 8 9 9
REMARK H PARENT 9 10
ROOT
ATOM      1  C   UNL     1      -3.985 -10.126 -27.448  1.00  0.00     0.012 C 
ENDROOT
BRANCH   1   2
ATOM      2  C   UNL     1      -3.136  -8.874 -27.669  1.00  0.00     0.001 C 
BRANCH   2   3
ATOM      3  C   UNL     1      -1.643  -9.206 -27.665  1.00  0.00    -0.000 C 
BRANCH   3   4
ATOM      4  C   UNL     1      -1.044  -9.058 -26.266  1.00  0.00    -0.003 C 
ATOM      5  C   UNL     1      -0.183 -10.257 -25.899  1.00  0.00     0.004 C 
ENDBRANCH   3   4
ENDBRANCH   2   3
ENDBRANCH   1   2
BRANCH   1   6
ATOM      6  C   UNL     1      -5.292  -9.794 -26.731  1.00  0.00     0.122 C 
BRANCH   6   7
ATOM      7  C   UNL     1      -6.019 -11.041 -26.279  1.00  0.00     0.303 C 
ATOM      8  O   UNL     1      -6.032 -11.481 -25.141  1.00  0.00    -0.252 OA
BRANCH   7   9
ATOM      9  O   UNL     1      -6.678 -11.644 -27.296  1.00  0.00    -0.481 OA
ATOM     10  H   UNL     1      -7.354 -11.080 -27.716  1.00  0.00     0.296 HD
ENDBRANCH   7   9
ENDBRANCH   6   7
ENDBRANCH   1   6
TORSDOF 6
ENDMDL
MODEL 9
REMARK VINA RESULT:      -5.4      5.050      7.087
REMARK SMILES CCCCCCC(=O)O
REMARK SMILES IDX 5 1 4 2 3 3 2 4 1 5 6 6 7 7 8 8 9 9
REMARK H PARENT 9 10
ROOT
ATOM      1  C   UNL     1       8.126  -0.506 -18.703  1.00  0.00     0.012 C 
ENDROOT
BRANCH   1   2
ATOM      2  C   UNL     1       7.650  -1.763 -19.432  1.00  0.00     0.001 C 
BRANCH   2   3
ATOM      3  C   UNL     1       6.305  -1.529 -20.123  1.00  0.00    -0.000 C 
BRANCH   3   4
ATOM      4  C   UNL     1       5.979  -2.655 -21.103  1.00  0.00    -0.003 C 
ATOM      5  C   UNL     1       5.237  -2.133 -22.324  1.00  0.00     0.004 C 
ENDBRANCH   3   4
ENDBRANCH   2   3
ENDBRANCH   1   2
BRANCH   1   6
ATOM      6  C   UNL     1       7.201  -0.154 -17.539  1.00  0.00     0.122 C 
BRANCH   6   7
ATOM      7  C   UNL     1       7.056  -1.303 -16.567  1.00  0.00     0.303 C 
ATOM      8  O   UNL     1       6.016  -1.886 -16.307  1.00  0.00    -0.252 OA
BRANCH   7   9
ATOM      9  O   UNL     1       8.235  -1.635 -15.989  1.00  0.00    -0.481 OA
ATOM     10  H   UNL     1       8.651  -0.904 -15.496  1.00  0.00     0.296 HD
ENDBRANCH   7   9
ENDBRANCH   6   7
ENDBRANCH   1   6
TORSDOF 6
ENDMDL
MODEL 10
REMARK VINA RESULT:      -5.3     10.881     12.262
REMARK SMILES CCCCCCC(=O)O
REMARK SMILES IDX 5 1 4 2 3 3 2 4 1 5 6 6 7 7 8 8 9 9
REMARK H PARENT 9 10
ROOT
ATOM      1  C   UNL     1      -1.955  -8.712 -26.631  1.00  0.00     0.012 C 
ENDROOT
BRANCH   1   2
ATOM      2  C   UNL     1      -2.870  -8.855 -27.847  1.00  0.00     0.001 C 
BRANCH   2   3
ATOM      3  C   UNL     1      -3.819 -10.045 -27.691  1.00  0.00    -0.000 C 
BRANCH   3   4
ATOM      4  C   UNL     1      -5.126  -9.629 -27.017  1.00  0.00    -0.003 C 
ATOM      5  C   UNL     1      -5.657 -10.726 -26.108  1.00  0.00     0.004 C 
ENDBRANCH   3   4
ENDBRANCH   2   3
ENDBRANCH   1   2
BRANCH   1   6
ATOM      6  C   UNL     1      -0.486  -8.876 -27.017  1.00  0.00     0.122 C 
BRANCH   6   7
ATOM      7  C   UNL     1       0.041 -10.248 -26.661  1.00  0.00     0.303 C 
ATOM      8  O   UNL     1       0.481 -10.579 -25.572  1.00  0.00    -0.252 OA
BRANCH   7   9
ATOM      9  O   UNL     1      -0.025 -11.106 -27.706  1.00  0.00    -0.481 OA
ATOM     10  H   UNL     1       0.240 -12.018 -27.483  1.00  0.00     0.296 HD
ENDBRANCH   7   9
ENDBRANCH   6   7
ENDBRANCH   1   6
TORSDOF 6
ENDMDL
