MODEL 1
REMARK VINA RESULT:      -6.6      0.000      0.000
REMARK SMILES CCCC/C=C(/C=O)CC
REMARK SMILES IDX 4 1 3 2 2 3 1 4 5 5 6 6 9 7 10 8 7 9 8 10
REMARK H PARENT
ROOT
ATOM      1  C   UNL     1       5.682  -2.041 -22.378  1.00  0.00     0.028 C 
ENDROOT
BRANCH   1   2
ATOM      2  C   UNL     1       5.473  -3.074 -21.266  1.00  0.00     0.004 C 
BRANCH   2   3
ATOM      3  C   UNL     1       6.528  -2.930 -20.168  1.00  0.00    -0.003 C 
ATOM      4  C   UNL     1       6.663  -1.487 -19.712  1.00  0.00     0.004 C 
ENDBRANCH   2   3
ENDBRANCH   1   2
BRANCH   1   5
ATOM      5  C   UNL     1       4.482  -1.935 -23.283  1.00  0.00    -0.020 C 
ATOM      6  C   UNL     1       4.482  -1.335 -24.490  1.00  0.00    -0.012 C 
BRANCH   6   7
ATOM      7  C   UNL     1       5.664  -0.688 -25.159  1.00  0.00     0.035 C 
ATOM      8  C   UNL     1       5.314  -0.141 -26.537  1.00  0.00     0.009 C 
ENDBRANCH   6   7
BRANCH   6   9
ATOM      9  C   UNL     1       3.197  -1.339 -25.247  1.00  0.00     0.255 C 
ATOM     10  O   UNL     1       2.102  -1.315 -24.697  1.00  0.00    -0.298 OA
ENDBRANCH   6   9
ENDBRANCH   1   5
TORSDOF 5
ENDMDL
MODEL 2
REMARK VINA RESULT:      -6.4      3.419      6.290
REMARK SMILES CCCC/C=C(/C=O)CC
REMARK SMILES IDX 4 1 3 2 2 3 1 4 5 5 6 6 9 7 10 8 7 9 8 10
REMARK H PARENT
ROOT
ATOM      1  C   UNL     1       6.604  -2.711 -20.616  1.00  0.00     0.028 C 
ENDROOT
BRANCH   1   2
ATOM      2  C   UNL     1       5.839  -1.877 -21.651  1.00  0.00     0.004 C 
BRANCH   2   3
ATOM      3  C   UNL     1       4.806  -2.726 -22.393  1.00  0.00    -0.003 C 
ATOM      4  C   UNL     1       4.425  -2.101 -23.725  1.00  0.00     0.004 C 
ENDBRANCH   2   3
ENDBRANCH   1   2
BRANCH   1   5
ATOM      5  C   UNL     1       6.225  -2.345 -19.205  1.00  0.00    -0.020 C 
ATOM      6  C   UNL     1       6.863  -1.426 -18.454  1.00  0.00    -0.012 C 
BRANCH   6   7
ATOM      7  C   UNL     1       8.041  -0.592 -18.881  1.00  0.00     0.035 C 
ATOM      8  C   UNL     1       8.516   0.339 -17.774  1.00  0.00     0.009 C 
ENDBRANCH   6   7
BRANCH   6   9
ATOM      9  C   UNL     1       6.335  -1.191 -17.079  1.00  0.00     0.255 C 
ATOM     10  O   UNL     1       6.242  -2.082 -16.242  1.00  0.00    -0.298 OA
ENDBRANCH   6   9
ENDBRANCH   1   5
TORSDOF 5
ENDMDL
MODEL 3
REMARK VINA RESULT:      -6.3      2.385      3.742
REMARK SMILES CCCC/C=C(/C=O)CC
REMARK SMILES IDX 4 1 3 2 2 3 1 4 5 5 6 6 9 7 10 8 7 9 8 10
REMARK H PARENT
ROOT
ATOM      1  C   UNL     1       4.147  -0.764 -25.206  1.00  0.00     0.028 C 
ENDROOT
BRANCH   1   2
ATOM      2  C   UNL     1       5.117  -1.547 -24.313  1.00  0.00     0.004 C 
BRANCH   2   3
ATOM      3  C   UNL     1       4.374  -2.282 -23.197  1.00  0.00    -0.003 C 
ATOM      4  C   UNL     1       5.246  -2.450 -21.964  1.00  0.00     0.004 C 
ENDBRANCH   2   3
ENDBRANCH   1   2
BRANCH   1   5
ATOM      5  C   UNL     1       4.619  -0.704 -26.635  1.00  0.00    -0.020 C 
ATOM      6  C   UNL     1       5.624   0.076 -27.078  1.00  0.00    -0.012 C 
BRANCH   6   7
ATOM      7  C   UNL     1       6.465   1.002 -26.242  1.00  0.00     0.035 C 
ATOM      8  C   UNL     1       7.360   1.891 -27.095  1.00  0.00     0.009 C 
ENDBRANCH   6   7
BRANCH   6   9
ATOM      9  C   UNL     1       5.955  -0.008 -28.531  1.00  0.00     0.255 C 
ATOM     10  O   UNL     1       5.517   0.782 -29.359  1.00  0.00    -0.298 OA
ENDBRANCH   6   9
ENDBRANCH   1   5
TORSDOF 5
ENDMDL
MODEL 4
REMARK VINA RESULT:      -6.2      3.582      6.527
REMARK SMILES CCCC/C=C(/C=O)CC
REMARK SMILES IDX 4 1 3 2 2 3 1 4 5 5 6 6 9 7 10 8 7 9 8 10
REMARK H PARENT
ROOT
ATOM      1  C   UNL     1       6.226  -2.807 -20.576  1.00  0.00     0.028 C 
ENDROOT
BRANCH   1   2
ATOM      2  C   UNL     1       5.526  -1.905 -21.599  1.00  0.00     0.004 C 
BRANCH   2   3
ATOM      3  C   UNL     1       4.687  -2.725 -22.580  1.00  0.00    -0.003 C 
ATOM      4  C   UNL     1       4.529  -2.009 -23.911  1.00  0.00     0.004 C 
ENDBRANCH   2   3
ENDBRANCH   1   2
BRANCH   1   5
ATOM      5  C   UNL     1       7.441  -2.147 -19.979  1.00  0.00    -0.020 C 
ATOM      6  C   UNL     1       7.425  -1.348 -18.895  1.00  0.00    -0.012 C 
BRANCH   6   7
ATOM      7  C   UNL     1       6.215  -0.985 -18.077  1.00  0.00     0.035 C 
ATOM      8  C   UNL     1       6.033  -1.910 -16.881  1.00  0.00     0.009 C 
ENDBRANCH   6   7
BRANCH   6   9
ATOM      9  C   UNL     1       8.734  -0.792 -18.444  1.00  0.00     0.255 C 
ATOM     10  O   UNL     1       9.113  -0.848 -17.279  1.00  0.00    -0.298 OA
ENDBRANCH   6   9
ENDBRANCH   1   5
TORSDOF 5
ENDMDL
MODEL 5
REMARK VINA RESULT:      -6.1      2.702      5.661
REMARK SMILES CCCC/C=C(/C=O)CC
REMARK SMILES IDX 4 1 3 2 2 3 1 4 5 5 6 6 9 7 10 8 7 9 8 10
REMARK H PARENT
ROOT
ATOM      1  C   UNL     1       5.605  -2.106 -22.039  1.00  0.00     0.028 C 
ENDROOT
BRANCH   1   2
ATOM      2  C   UNL     1       4.527  -2.743 -22.923  1.00  0.00     0.004 C 
BRANCH   2   3
ATOM      3  C   UNL     1       3.923  -1.719 -23.885  1.00  0.00    -0.003 C 
ATOM      4  C   UNL     1       4.954  -1.215 -24.882  1.00  0.00     0.004 C 
ENDBRANCH   2   3
ENDBRANCH   1   2
BRANCH   1   5
ATOM      5  C   UNL     1       5.763  -2.833 -20.729  1.00  0.00    -0.020 C 
ATOM      6  C   UNL     1       6.389  -2.334 -19.645  1.00  0.00    -0.012 C 
BRANCH   6   7
ATOM      7  C   UNL     1       7.021  -0.973 -19.533  1.00  0.00     0.035 C 
ATOM      8  C   UNL     1       8.278  -0.994 -18.674  1.00  0.00     0.009 C 
ENDBRANCH   6   7
BRANCH   6   9
ATOM      9  C   UNL     1       6.436  -3.202 -18.432  1.00  0.00     0.255 C 
ATOM     10  O   UNL     1       5.738  -4.200 -18.302  1.00  0.00    -0.298 OA
ENDBRANCH   6   9
ENDBRANCH   1   5
TORSDOF 5
ENDMDL
MODEL 6
REMARK VINA RESULT:      -5.5     11.048     12.716
REMARK SMILES CCCC/C=C(/C=O)CC
REMARK SMILES IDX 4 1 3 2 2 3 1 4 5 5 6 6 9 7 10 8 7 9 8 10
REMARK H PARENT
ROOT
ATOM      1  C   UNL     1      -3.747  -9.169 -27.894  1.00  0.00     0.028 C 
ENDROOT
BRANCH   1   2
ATOM      2  C   UNL     1      -4.969  -9.339 -26.985  1.00  0.00     0.004 C 
BRANCH   2   3
ATOM      3  C   UNL     1      -5.374 -10.808 -26.868  1.00  0.00    -0.003 C 
ATOM      4  C   UNL     1      -5.994 -11.109 -25.514  1.00  0.00     0.004 C 
ENDBRANCH   2   3
ENDBRANCH   1   2
BRANCH   1   5
ATOM      5  C   UNL     1      -2.755 -10.289 -27.723  1.00  0.00    -0.020 C 
ATOM      6  C   UNL     1      -1.533 -10.154 -27.171  1.00  0.00    -0.012 C 
BRANCH   6   7
ATOM      7  C   UNL     1      -0.946  -8.886 -26.613  1.00  0.00     0.035 C 
ATOM      8  C   UNL     1       0.390  -8.541 -27.257  1.00  0.00     0.009 C 
ENDBRANCH   6   7
BRANCH   6   9
ATOM      9  C   UNL     1      -0.693 -11.384 -27.076  1.00  0.00     0.255 C 
ATOM     10  O   UNL     1      -0.845 -12.350 -27.815  1.00  0.00    -0.298 OA
ENDBRANCH   6   9
ENDBRANCH   1   5
TORSDOF 5
ENDMDL
MODEL 7
REMARK VINA RESULT:      -5.0      4.095      7.267
REMARK SMILES CCCC/C=C(/C=O)CC
REMARK SMILES IDX 4 1 3 2 2 3 1 4 5 5 6 6 9 7 10 8 7 9 8 10
REMARK H PARENT
ROOT
ATOM      1  C   UNL     1       7.487  -1.556 -19.404  1.00  0.00     0.028 C 
ENDROOT
BRANCH   1   2
ATOM      2  C   UNL     1       6.340  -2.572 -19.429  1.00  0.00     0.004 C 
BRANCH   2   3
ATOM      3  C   UNL     1       6.144  -3.153 -20.829  1.00  0.00    -0.003 C 
ATOM      4  C   UNL     1       5.590  -2.115 -21.791  1.00  0.00     0.004 C 
ENDBRANCH   2   3
ENDBRANCH   1   2
BRANCH   1   5
ATOM      5  C   UNL     1       7.216  -0.421 -18.452  1.00  0.00    -0.020 C 
ATOM      6  C   UNL     1       7.918  -0.178 -17.328  1.00  0.00    -0.012 C 
BRANCH   6   7
ATOM      7  C   UNL     1       9.098  -0.968 -16.830  1.00  0.00     0.035 C 
ATOM      8  C   UNL     1      10.129  -0.085 -16.139  1.00  0.00     0.009 C 
ENDBRANCH   6   7
BRANCH   6   9
ATOM      9  C   UNL     1       7.506   1.003 -16.514  1.00  0.00     0.255 C 
ATOM     10  O   UNL     1       7.033   2.019 -17.011  1.00  0.00    -0.298 OA
ENDBRANCH   6   9
ENDBRANCH   1   5
TORSDOF 5
ENDMDL
MODEL 8
REMARK VINA RESULT:      -5.0      4.808      7.073
REMARK SMILES CCCC/C=C(/C=O)CC
REMARK SMILES IDX 4 1 3 2 2 3 1 4 5 5 6 6 9 7 10 8 7 9 8 10
REMARK H PARENT
ROOT
ATOM      1  C   UNL     1       8.560   0.469 -17.672  1.00  0.00     0.028 C 
ENDROOT
BRANCH   1   2
ATOM      2  C   UNL     1       9.471  -0.095 -16.575  1.00  0.00     0.004 C 
BRANCH   2   3
ATOM      3  C   UNL     1      10.434   0.971 -16.052  1.00  0.00    -0.003 C 
ATOM      4  C   UNL     1      11.769   0.367 -15.649  1.00  0.00     0.004 C 
ENDBRANCH   2   3
ENDBRANCH   1   2
BRANCH   1   5
ATOM      5  C   UNL     1       8.255  -0.555 -18.734  1.00  0.00    -0.020 C 
ATOM      6  C   UNL     1       7.122  -1.283 -18.794  1.00  0.00    -0.012 C 
BRANCH   6   7
ATOM      7  C   UNL     1       5.961  -1.200 -17.841  1.00  0.00     0.035 C 
ATOM      8  C   UNL     1       6.227  -1.954 -16.546  1.00  0.00     0.009 C 
ENDBRANCH   6   7
BRANCH   6   9
ATOM      9  C   UNL     1       6.995  -2.243 -19.930  1.00  0.00     0.255 C 
ATOM     10  O   UNL     1       6.365  -3.291 -19.846  1.00  0.00    -0.298 OA
ENDBRANCH   6   9
ENDBRANCH   1   5
TORSDOF 5
ENDMDL
MODEL 9
REMARK VINA RESULT:      -4.9     10.647     12.398
REMARK SMILES CCCC/C=C(/C=O)CC
REMARK SMILES IDX 4 1 3 2 2 3 1 4 5 5 6 6 9 7 10 8 7 9 8 10
REMARK H PARENT
ROOT
ATOM      1  C   UNL     1      -3.104 -10.411 -27.378  1.00  0.00     0.028 C 
ENDROOT
BRANCH   1   2
ATOM      2  C   UNL     1      -4.292  -9.498 -27.703  1.00  0.00     0.004 C 
BRANCH   2   3
ATOM      3  C   UNL     1      -5.378  -9.598 -26.631  1.00  0.00    -0.003 C 
ATOM      4  C   UNL     1      -5.665 -11.044 -26.262  1.00  0.00     0.004 C 
ENDBRANCH   2   3
ENDBRANCH   1   2
BRANCH   1   5
ATOM      5  C   UNL     1      -1.837  -9.628 -27.148  1.00  0.00    -0.020 C 
ATOM      6  C   UNL     1      -0.651 -10.171 -26.812  1.00  0.00    -0.012 C 
BRANCH   6   7
ATOM      7  C   UNL     1      -0.366 -11.637 -26.627  1.00  0.00     0.035 C 
ATOM      8  C   UNL     1       0.651 -11.888 -25.521  1.00  0.00     0.009 C 
ENDBRANCH   6   7
BRANCH   6   9
ATOM      9  C   UNL     1       0.497  -9.234 -26.636  1.00  0.00     0.255 C 
ATOM     10  O   UNL     1       0.720  -8.306 -27.405  1.00  0.00    -0.298 OA
ENDBRANCH   6   9
ENDBRANCH   1   5
TORSDOF 5
ENDMDL
MODEL 10
REMARK VINA RESULT:      -4.9      3.332      4.581
REMARK SMILES CCCC/C=C(/C=O)CC
REMARK SMILES IDX 4 1 3 2 2 3 1 4 5 5 6 6 9 7 10 8 7 9 8 10
REMARK H PARENT
ROOT
ATOM      1  C   UNL     1       4.789  -0.760 -25.650  1.00  0.00     0.028 C 
ENDROOT
BRANCH   1   2
ATOM      2  C   UNL     1       5.118  -1.482 -24.338  1.00  0.00     0.004 C 
BRANCH   2   3
ATOM      3  C   UNL     1       3.854  -2.021 -23.669  1.00  0.00    -0.003 C 
ATOM      4  C   UNL     1       2.604  -1.357 -24.223  1.00  0.00     0.004 C 
ENDBRANCH   2   3
ENDBRANCH   1   2
BRANCH   1   5
ATOM      5  C   UNL     1       5.788   0.322 -25.965  1.00  0.00    -0.020 C 
ATOM      6  C   UNL     1       6.373   0.500 -27.165  1.00  0.00    -0.012 C 
BRANCH   6   7
ATOM      7  C   UNL     1       6.130  -0.321 -28.402  1.00  0.00     0.035 C 
ATOM      8  C   UNL     1       5.592   0.520 -29.552  1.00  0.00     0.009 C 
ENDBRANCH   6   7
BRANCH   6   9
ATOM      9  C   UNL     1       7.332   1.637 -27.289  1.00  0.00     0.255 C 
ATOM     10  O   UNL     1       6.979   2.775 -27.577  1.00  0.00    -0.298 OA
ENDBRANCH   6   9
ENDBRANCH   1   5
TORSDOF 5
ENDMDL
