MODEL 1
REMARK VINA RESULT:      -5.9      0.000      0.000
REMARK SMILES COc1cc(/C=C/C=O)ccc1O
REMARK SMILES IDX 3 1 12 2 11 3 10 4 5 5 4 6 2 7 1 8 13 9 6 11 7 12 8 13 9 14
REMARK H PARENT 13 10
ROOT
ATOM      1  C   UNL     1      -2.921   0.794 -27.993  1.00  0.00     0.161 A 
ATOM      2  C   UNL     1      -2.628  -0.087 -29.039  1.00  0.00     0.157 A 
ATOM      3  C   UNL     1      -3.179  -1.359 -29.094  1.00  0.00     0.051 A 
ATOM      4  C   UNL     1      -4.050  -1.770 -28.085  1.00  0.00     0.012 A 
ATOM      5  C   UNL     1      -4.373  -0.904 -27.030  1.00  0.00    -0.022 A 
ATOM      6  C   UNL     1      -3.791   0.375 -26.984  1.00  0.00     0.058 A 
ENDROOT
BRANCH   1   7
ATOM      7  O   UNL     1      -2.298   2.013 -28.072  1.00  0.00    -0.493 OA
ATOM      8  C   UNL     1      -3.121   3.133 -28.371  1.00  0.00     0.278 C 
ENDBRANCH   1   7
BRANCH   2   9
ATOM      9  O   UNL     1      -1.776   0.291 -30.040  1.00  0.00    -0.504 OA
ATOM     10  H   UNL     1      -2.298   0.897 -30.601  1.00  0.00     0.293 HD
ENDBRANCH   2   9
BRANCH   5  11
ATOM     11  C   UNL     1      -5.262  -1.318 -25.933  1.00  0.00     0.011 C 
ATOM     12  C   UNL     1      -5.528  -0.542 -24.873  1.00  0.00     0.044 C 
BRANCH  12  13
ATOM     13  C   UNL     1      -6.424  -1.031 -23.808  1.00  0.00     0.252 C 
ATOM     14  O   UNL     1      -6.999  -2.108 -23.903  1.00  0.00    -0.299 OA
ENDBRANCH  12  13
ENDBRANCH   5  11
TORSDOF 4
ENDMDL
MODEL 2
REMARK VINA RESULT:      -5.8      1.736      2.521
REMARK SMILES COc1cc(/C=C/C=O)ccc1O
REMARK SMILES IDX 3 1 12 2 11 3 10 4 5 5 4 6 2 7 1 8 13 9 6 11 7 12 8 13 9 14
REMARK H PARENT 13 10
ROOT
ATOM      1  C   UNL     1      -4.130  -0.337 -30.000  1.00  0.00     0.161 A 
ATOM      2  C   UNL     1      -2.795   0.032 -30.189  1.00  0.00     0.157 A 
ATOM      3  C   UNL     1      -1.979   0.380 -29.122  1.00  0.00     0.051 A 
ATOM      4  C   UNL     1      -2.501   0.358 -27.829  1.00  0.00     0.012 A 
ATOM      5  C   UNL     1      -3.833  -0.020 -27.606  1.00  0.00    -0.022 A 
ATOM      6  C   UNL     1      -4.647  -0.354 -28.703  1.00  0.00     0.058 A 
ENDROOT
BRANCH   1   7
ATOM      7  O   UNL     1      -4.811  -0.650 -31.149  1.00  0.00    -0.493 OA
ATOM      8  C   UNL     1      -6.073  -0.021 -31.336  1.00  0.00     0.278 C 
ENDBRANCH   1   7
BRANCH   2   9
ATOM      9  O   UNL     1      -2.259   0.063 -31.447  1.00  0.00    -0.504 OA
ATOM     10  H   UNL     1      -1.510   0.687 -31.389  1.00  0.00     0.293 HD
ENDBRANCH   2   9
BRANCH   5  11
ATOM     11  C   UNL     1      -4.423  -0.022 -26.259  1.00  0.00     0.011 C 
ATOM     12  C   UNL     1      -5.239  -0.989 -25.818  1.00  0.00     0.044 C 
BRANCH  12  13
ATOM     13  C   UNL     1      -5.799  -0.916 -24.454  1.00  0.00     0.252 C 
ATOM     14  O   UNL     1      -6.535  -1.793 -24.021  1.00  0.00    -0.299 OA
ENDBRANCH  12  13
ENDBRANCH   5  11
TORSDOF 4
ENDMDL
MODEL 3
REMARK VINA RESULT:      -5.7      9.418     10.660
REMARK SMILES COc1cc(/C=C/C=O)ccc1O
REMARK SMILES IDX 3 1 12 2 11 3 10 4 5 5 4 6 2 7 1 8 13 9 6 11 7 12 8 13 9 14
REMARK H PARENT 13 10
ROOT
ATOM      1  C   UNL     1      -0.966 -10.283 -27.277  1.00  0.00     0.161 A 
ATOM      2  C   UNL     1      -0.896  -8.898 -27.456  1.00  0.00     0.157 A 
ATOM      3  C   UNL     1      -2.038  -8.125 -27.610  1.00  0.00     0.051 A 
ATOM      4  C   UNL     1      -3.289  -8.744 -27.581  1.00  0.00     0.012 A 
ATOM      5  C   UNL     1      -3.392 -10.129 -27.391  1.00  0.00    -0.022 A 
ATOM      6  C   UNL     1      -2.220 -10.896 -27.253  1.00  0.00     0.058 A 
ENDROOT
BRANCH   1   7
ATOM      7  O   UNL     1       0.246 -10.910 -27.144  1.00  0.00    -0.493 OA
ATOM      8  C   UNL     1       0.442 -11.678 -25.963  1.00  0.00     0.278 C 
ENDBRANCH   1   7
BRANCH   2   9
ATOM      9  O   UNL     1       0.318  -8.267 -27.488  1.00  0.00    -0.504 OA
ATOM     10  H   UNL     1       0.148  -7.373 -27.135  1.00  0.00     0.293 HD
ENDBRANCH   2   9
BRANCH   5  11
ATOM     11  C   UNL     1      -4.692 -10.816 -27.389  1.00  0.00     0.011 C 
ATOM     12  C   UNL     1      -5.312 -11.210 -26.268  1.00  0.00     0.044 C 
BRANCH  12  13
ATOM     13  C   UNL     1      -6.612 -11.902 -26.348  1.00  0.00     0.252 C 
ATOM     14  O   UNL     1      -6.768 -13.023 -25.879  1.00  0.00    -0.299 OA
ENDBRANCH  12  13
ENDBRANCH   5  11
TORSDOF 4
ENDMDL
MODEL 4
REMARK VINA RESULT:      -5.6      5.459      6.528
REMARK SMILES COc1cc(/C=C/C=O)ccc1O
REMARK SMILES IDX 3 1 12 2 11 3 10 4 5 5 4 6 2 7 1 8 13 9 6 11 7 12 8 13 9 14
REMARK H PARENT 13 10
ROOT
ATOM      1  C   UNL     1      -5.165   0.132 -31.052  1.00  0.00     0.161 A 
ATOM      2  C   UNL     1      -4.737   1.392 -30.624  1.00  0.00     0.157 A 
ATOM      3  C   UNL     1      -5.568   2.501 -30.680  1.00  0.00     0.051 A 
ATOM      4  C   UNL     1      -6.866   2.357 -31.172  1.00  0.00     0.012 A 
ATOM      5  C   UNL     1      -7.329   1.103 -31.597  1.00  0.00    -0.022 A 
ATOM      6  C   UNL     1      -6.464  -0.005 -31.546  1.00  0.00     0.058 A 
ENDROOT
BRANCH   1   7
ATOM      7  O   UNL     1      -4.231  -0.866 -30.940  1.00  0.00    -0.493 OA
ATOM      8  C   UNL     1      -4.368  -1.748 -29.833  1.00  0.00     0.278 C 
ENDBRANCH   1   7
BRANCH   2   9
ATOM      9  O   UNL     1      -3.469   1.561 -30.138  1.00  0.00    -0.504 OA
ATOM     10  H   UNL     1      -2.929   0.892 -30.603  1.00  0.00     0.293 HD
ENDBRANCH   2   9
BRANCH   5  11
ATOM     11  C   UNL     1      -8.679   0.923 -32.151  1.00  0.00     0.011 C 
ATOM     12  C   UNL     1      -8.929   0.210 -33.258  1.00  0.00     0.044 C 
BRANCH  12  13
ATOM     13  C   UNL     1     -10.311   0.082 -33.757  1.00  0.00     0.252 C 
ATOM     14  O   UNL     1     -11.261   0.002 -32.989  1.00  0.00    -0.299 OA
ENDBRANCH  12  13
ENDBRANCH   5  11
TORSDOF 4
ENDMDL
MODEL 5
REMARK VINA RESULT:      -5.6     15.867     16.510
REMARK SMILES COc1cc(/C=C/C=O)ccc1O
REMARK SMILES IDX 3 1 12 2 11 3 10 4 5 5 4 6 2 7 1 8 13 9 6 11 7 12 8 13 9 14
REMARK H PARENT 13 10
ROOT
ATOM      1  C   UNL     1       9.709   0.029 -16.044  1.00  0.00     0.161 A 
ATOM      2  C   UNL     1       8.917   1.102 -15.623  1.00  0.00     0.157 A 
ATOM      3  C   UNL     1       7.769   1.471 -16.310  1.00  0.00     0.051 A 
ATOM      4  C   UNL     1       7.394   0.754 -17.446  1.00  0.00     0.012 A 
ATOM      5  C   UNL     1       8.161  -0.334 -17.885  1.00  0.00    -0.022 A 
ATOM      6  C   UNL     1       9.329  -0.682 -17.183  1.00  0.00     0.058 A 
ENDROOT
BRANCH   1   7
ATOM      7  O   UNL     1      10.813  -0.214 -15.266  1.00  0.00    -0.493 OA
ATOM      8  C   UNL     1      12.052   0.300 -15.738  1.00  0.00     0.278 C 
ENDBRANCH   1   7
BRANCH   2   9
ATOM      9  O   UNL     1       9.263   1.821 -14.513  1.00  0.00    -0.504 OA
ATOM     10  H   UNL     1       8.804   2.678 -14.612  1.00  0.00     0.293 HD
ENDBRANCH   2   9
BRANCH   5  11
ATOM     11  C   UNL     1       7.811  -1.090 -19.097  1.00  0.00     0.011 C 
ATOM     12  C   UNL     1       6.611  -1.655 -19.288  1.00  0.00     0.044 C 
BRANCH  12  13
ATOM     13  C   UNL     1       6.338  -2.406 -20.529  1.00  0.00     0.252 C 
ATOM     14  O   UNL     1       6.552  -3.610 -20.605  1.00  0.00    -0.299 OA
ENDBRANCH  12  13
ENDBRANCH   5  11
TORSDOF 4
ENDMDL
MODEL 6
REMARK VINA RESULT:      -5.5      6.383      7.919
REMARK SMILES COc1cc(/C=C/C=O)ccc1O
REMARK SMILES IDX 3 1 12 2 11 3 10 4 5 5 4 6 2 7 1 8 13 9 6 11 7 12 8 13 9 14
REMARK H PARENT 13 10
ROOT
ATOM      1  C   UNL     1      -9.390  -0.806 -31.945  1.00  0.00     0.161 A 
ATOM      2  C   UNL     1     -10.111   0.044 -32.791  1.00  0.00     0.157 A 
ATOM      3  C   UNL     1      -9.519   1.147 -33.389  1.00  0.00     0.051 A 
ATOM      4  C   UNL     1      -8.172   1.414 -33.145  1.00  0.00     0.012 A 
ATOM      5  C   UNL     1      -7.420   0.574 -32.312  1.00  0.00    -0.022 A 
ATOM      6  C   UNL     1      -8.043  -0.531 -31.703  1.00  0.00     0.058 A 
ENDROOT
BRANCH   1   7
ATOM      7  O   UNL     1     -10.111  -1.851 -31.426  1.00  0.00    -0.493 OA
ATOM      8  C   UNL     1      -9.368  -2.906 -30.828  1.00  0.00     0.278 C 
ENDBRANCH   1   7
BRANCH   2   9
ATOM      9  O   UNL     1     -11.433  -0.196 -33.046  1.00  0.00    -0.504 OA
ATOM     10  H   UNL     1     -11.637   0.331 -33.843  1.00  0.00     0.293 HD
ENDBRANCH   2   9
BRANCH   5  11
ATOM     11  C   UNL     1      -6.007   0.846 -32.008  1.00  0.00     0.011 C 
ATOM     12  C   UNL     1      -5.269   0.074 -31.199  1.00  0.00     0.044 C 
BRANCH  12  13
ATOM     13  C   UNL     1      -3.858   0.417 -30.935  1.00  0.00     0.252 C 
ATOM     14  O   UNL     1      -2.948  -0.338 -31.253  1.00  0.00    -0.299 OA
ENDBRANCH  12  13
ENDBRANCH   5  11
TORSDOF 4
ENDMDL
MODEL 7
REMARK VINA RESULT:      -5.5      5.837      6.427
REMARK SMILES COc1cc(/C=C/C=O)ccc1O
REMARK SMILES IDX 3 1 12 2 11 3 10 4 5 5 4 6 2 7 1 8 13 9 6 11 7 12 8 13 9 14
REMARK H PARENT 13 10
ROOT
ATOM      1  C   UNL     1      -7.506  -0.799 -31.596  1.00  0.00     0.161 A 
ATOM      2  C   UNL     1      -6.370  -0.942 -30.794  1.00  0.00     0.157 A 
ATOM      3  C   UNL     1      -6.257  -1.972 -29.871  1.00  0.00     0.051 A 
ATOM      4  C   UNL     1      -7.299  -2.890 -29.742  1.00  0.00     0.012 A 
ATOM      5  C   UNL     1      -8.446  -2.780 -30.541  1.00  0.00    -0.022 A 
ATOM      6  C   UNL     1      -8.548  -1.720 -31.459  1.00  0.00     0.058 A 
ENDROOT
BRANCH   1   7
ATOM      7  O   UNL     1      -7.475   0.268 -32.457  1.00  0.00    -0.493 OA
ATOM      8  C   UNL     1      -8.488   0.315 -33.454  1.00  0.00     0.278 C 
ENDBRANCH   1   7
BRANCH   2   9
ATOM      9  O   UNL     1      -5.334  -0.055 -30.901  1.00  0.00    -0.504 OA
ATOM     10  H   UNL     1      -4.527  -0.597 -30.804  1.00  0.00     0.293 HD
ENDBRANCH   2   9
BRANCH   5  11
ATOM     11  C   UNL     1      -9.576  -3.711 -30.407  1.00  0.00     0.011 C 
ATOM     12  C   UNL     1      -9.540  -4.801 -29.628  1.00  0.00     0.044 C 
BRANCH  12  13
ATOM     13  C   UNL     1     -10.713  -5.693 -29.552  1.00  0.00     0.252 C 
ATOM     14  O   UNL     1     -11.227  -6.158 -30.562  1.00  0.00    -0.299 OA
ENDBRANCH  12  13
ENDBRANCH   5  11
TORSDOF 4
ENDMDL
MODEL 8
REMARK VINA RESULT:      -5.4      3.567      4.881
REMARK SMILES COc1cc(/C=C/C=O)ccc1O
REMARK SMILES IDX 3 1 12 2 11 3 10 4 5 5 4 6 2 7 1 8 13 9 6 11 7 12 8 13 9 14
REMARK H PARENT 13 10
ROOT
ATOM      1  C   UNL     1      -3.403   1.745 -28.792  1.00  0.00     0.161 A 
ATOM      2  C   UNL     1      -2.473   0.731 -28.537  1.00  0.00     0.157 A 
ATOM      3  C   UNL     1      -2.601  -0.531 -29.099  1.00  0.00     0.051 A 
ATOM      4  C   UNL     1      -3.681  -0.796 -29.942  1.00  0.00     0.012 A 
ATOM      5  C   UNL     1      -4.622   0.204 -30.227  1.00  0.00    -0.022 A 
ATOM      6  C   UNL     1      -4.482   1.472 -29.634  1.00  0.00     0.058 A 
ENDROOT
BRANCH   1   7
ATOM      7  O   UNL     1      -3.145   2.936 -28.163  1.00  0.00    -0.493 OA
ATOM      8  C   UNL     1      -3.351   4.119 -28.925  1.00  0.00     0.278 C 
ENDBRANCH   1   7
BRANCH   2   9
ATOM      9  O   UNL     1      -1.406   0.965 -27.713  1.00  0.00    -0.504 OA
ATOM     10  H   UNL     1      -0.641   1.061 -28.312  1.00  0.00     0.293 HD
ENDBRANCH   2   9
BRANCH   5  11
ATOM     11  C   UNL     1      -5.789  -0.052 -31.084  1.00  0.00     0.011 C 
ATOM     12  C   UNL     1      -6.326   0.876 -31.888  1.00  0.00     0.044 C 
BRANCH  12  13
ATOM     13  C   UNL     1      -7.503   0.545 -32.714  1.00  0.00     0.252 C 
ATOM     14  O   UNL     1      -7.583   0.902 -33.883  1.00  0.00    -0.299 OA
ENDBRANCH  12  13
ENDBRANCH   5  11
TORSDOF 4
ENDMDL
MODEL 9
REMARK VINA RESULT:      -5.4      5.303      6.013
REMARK SMILES COc1cc(/C=C/C=O)ccc1O
REMARK SMILES IDX 3 1 12 2 11 3 10 4 5 5 4 6 2 7 1 8 13 9 6 11 7 12 8 13 9 14
REMARK H PARENT 13 10
ROOT
ATOM      1  C   UNL     1      -4.939   2.460 -30.326  1.00  0.00     0.161 A 
ATOM      2  C   UNL     1      -4.282   1.235 -30.475  1.00  0.00     0.157 A 
ATOM      3  C   UNL     1      -4.919   0.131 -31.025  1.00  0.00     0.051 A 
ATOM      4  C   UNL     1      -6.245   0.246 -31.443  1.00  0.00     0.012 A 
ATOM      5  C   UNL     1      -6.926   1.466 -31.318  1.00  0.00    -0.022 A 
ATOM      6  C   UNL     1      -6.267   2.568 -30.744  1.00  0.00     0.058 A 
ENDROOT
BRANCH   1   7
ATOM      7  O   UNL     1      -4.182   3.456 -29.763  1.00  0.00    -0.493 OA
ATOM      8  C   UNL     1      -4.251   4.737 -30.379  1.00  0.00     0.278 C 
ENDBRANCH   1   7
BRANCH   2   9
ATOM      9  O   UNL     1      -2.982   1.095 -30.073  1.00  0.00    -0.504 OA
ATOM     10  H   UNL     1      -2.606   1.996 -30.117  1.00  0.00     0.293 HD
ENDBRANCH   2   9
BRANCH   5  11
ATOM     11  C   UNL     1      -8.333   1.612 -31.718  1.00  0.00     0.011 C 
ATOM     12  C   UNL     1      -8.749   1.509 -32.988  1.00  0.00     0.044 C 
BRANCH  12  13
ATOM     13  C   UNL     1     -10.179   1.677 -33.312  1.00  0.00     0.252 C 
ATOM     14  O   UNL     1     -11.042   1.022 -32.741  1.00  0.00    -0.299 OA
ENDBRANCH  12  13
ENDBRANCH   5  11
TORSDOF 4
ENDMDL
MODEL 10
REMARK VINA RESULT:      -5.4      5.346      6.260
REMARK SMILES COc1cc(/C=C/C=O)ccc1O
REMARK SMILES IDX 3 1 12 2 11 3 10 4 5 5 4 6 2 7 1 8 13 9 6 11 7 12 8 13 9 14
REMARK H PARENT 13 10
ROOT
ATOM      1  C   UNL     1      -5.565  -0.600 -30.394  1.00  0.00     0.161 A 
ATOM      2  C   UNL     1      -5.518  -1.704 -29.536  1.00  0.00     0.157 A 
ATOM      3  C   UNL     1      -6.554  -2.625 -29.479  1.00  0.00     0.051 A 
ATOM      4  C   UNL     1      -7.669  -2.449 -30.299  1.00  0.00     0.012 A 
ATOM      5  C   UNL     1      -7.739  -1.360 -31.179  1.00  0.00    -0.022 A 
ATOM      6  C   UNL     1      -6.685  -0.429 -31.210  1.00  0.00     0.058 A 
ENDROOT
BRANCH   1   7
ATOM      7  O   UNL     1      -4.469   0.223 -30.337  1.00  0.00    -0.493 OA
ATOM      8  C   UNL     1      -3.456   0.008 -31.312  1.00  0.00     0.278 C 
ENDBRANCH   1   7
BRANCH   2   9
ATOM      9  O   UNL     1      -4.436  -1.898 -28.722  1.00  0.00    -0.504 OA
ATOM     10  H   UNL     1      -3.665  -1.903 -29.322  1.00  0.00     0.293 HD
ENDBRANCH   2   9
BRANCH   5  11
ATOM     11  C   UNL     1      -8.914  -1.128 -32.032  1.00  0.00     0.011 C 
ATOM     12  C   UNL     1      -9.001  -0.110 -32.900  1.00  0.00     0.044 C 
BRANCH  12  13
ATOM     13  C   UNL     1     -10.218   0.062 -33.716  1.00  0.00     0.252 C 
ATOM     14  O   UNL     1     -11.334   0.001 -33.217  1.00  0.00    -0.299 OA
ENDBRANCH  12  13
ENDBRANCH   5  11
TORSDOF 4
ENDMDL
