MODEL 1
REMARK VINA RESULT:      -7.4      0.000      0.000
REMARK SMILES CCCCCCCCC(=O)O
REMARK SMILES IDX 6 1 5 2 4 3 3 4 2 5 1 6 7 7 8 8 9 9 10 10 11 11
REMARK H PARENT 11 12
ROOT
ATOM      1  C   UNL     1       5.264  -1.949 -21.957  1.00  0.00     0.001 C 
ENDROOT
BRANCH   1   2
ATOM      2  C   UNL     1       5.788  -3.212 -21.273  1.00  0.00     0.000 C 
BRANCH   2   3
ATOM      3  C   UNL     1       6.499  -2.881 -19.960  1.00  0.00    -0.000 C 
BRANCH   3   4
ATOM      4  C   UNL     1       6.603  -1.369 -19.751  1.00  0.00    -0.000 C 
BRANCH   4   5
ATOM      5  C   UNL     1       7.153  -1.036 -18.364  1.00  0.00    -0.003 C 
ATOM      6  C   UNL     1       6.252  -1.575 -17.264  1.00  0.00     0.004 C 
ENDBRANCH   4   5
ENDBRANCH   3   4
ENDBRANCH   2   3
ENDBRANCH   1   2
BRANCH   1   7
ATOM      7  C   UNL     1       4.597  -2.278 -23.294  1.00  0.00     0.012 C 
BRANCH   7   8
ATOM      8  C   UNL     1       4.951  -1.246 -24.363  1.00  0.00     0.122 C 
BRANCH   8   9
ATOM      9  C   UNL     1       3.862  -1.110 -25.401  1.00  0.00     0.303 C 
ATOM     10  O   UNL     1       3.774  -1.766 -26.427  1.00  0.00    -0.252 OA
BRANCH   9  11
ATOM     11  O   UNL     1       2.959  -0.157 -25.072  1.00  0.00    -0.481 OA
ATOM     12  H   UNL     1       3.350   0.726 -24.941  1.00  0.00     0.296 HD
ENDBRANCH   9  11
ENDBRANCH   8   9
ENDBRANCH   7   8
ENDBRANCH   1   7
TORSDOF 8
ENDMDL
MODEL 2
REMARK VINA RESULT:      -6.9      3.560      6.433
REMARK SMILES CCCCCCCCC(=O)O
REMARK SMILES IDX 6 1 5 2 4 3 3 4 2 5 1 6 7 7 8 8 9 9 10 10 11 11
REMARK H PARENT 11 12
ROOT
ATOM      1  C   UNL     1       4.665  -2.341 -22.621  1.00  0.00     0.001 C 
ENDROOT
BRANCH   1   2
ATOM      2  C   UNL     1       5.118  -1.634 -23.898  1.00  0.00     0.000 C 
BRANCH   2   3
ATOM      3  C   UNL     1       3.931  -1.300 -24.803  1.00  0.00    -0.000 C 
BRANCH   3   4
ATOM      4  C   UNL     1       4.397  -0.845 -26.186  1.00  0.00    -0.000 C 
BRANCH   4   5
ATOM      5  C   UNL     1       5.625   0.060 -26.090  1.00  0.00    -0.003 C 
ATOM      6  C   UNL     1       6.279   0.258 -27.448  1.00  0.00     0.004 C 
ENDBRANCH   4   5
ENDBRANCH   3   4
ENDBRANCH   2   3
ENDBRANCH   1   2
BRANCH   1   7
ATOM      7  C   UNL     1       5.857  -2.704 -21.733  1.00  0.00     0.012 C 
BRANCH   7   8
ATOM      8  C   UNL     1       6.105  -1.637 -20.669  1.00  0.00     0.122 C 
BRANCH   8   9
ATOM      9  C   UNL     1       6.380  -2.244 -19.313  1.00  0.00     0.303 C 
ATOM     10  O   UNL     1       6.403  -1.637 -18.255  1.00  0.00    -0.252 OA
BRANCH   9  11
ATOM     11  O   UNL     1       6.605  -3.577 -19.387  1.00  0.00    -0.481 OA
ATOM     12  H   UNL     1       6.545  -4.034 -18.527  1.00  0.00     0.296 HD
ENDBRANCH   9  11
ENDBRANCH   8   9
ENDBRANCH   7   8
ENDBRANCH   1   7
TORSDOF 8
ENDMDL
MODEL 3
REMARK VINA RESULT:      -6.8      4.113      6.531
REMARK SMILES CCCCCCCCC(=O)O
REMARK SMILES IDX 6 1 5 2 4 3 3 4 2 5 1 6 7 7 8 8 9 9 10 10 11 11
REMARK H PARENT 11 12
ROOT
ATOM      1  C   UNL     1       6.567  -2.846 -20.012  1.00  0.00     0.001 C 
ENDROOT
BRANCH   1   2
ATOM      2  C   UNL     1       5.613  -3.147 -21.169  1.00  0.00     0.000 C 
BRANCH   2   3
ATOM      3  C   UNL     1       5.495  -1.954 -22.119  1.00  0.00    -0.000 C 
BRANCH   3   4
ATOM      4  C   UNL     1       4.492  -2.233 -23.239  1.00  0.00    -0.000 C 
BRANCH   4   5
ATOM      5  C   UNL     1       4.841  -1.453 -24.506  1.00  0.00    -0.003 C 
ATOM      6  C   UNL     1       3.592  -0.959 -25.218  1.00  0.00     0.004 C 
ENDBRANCH   4   5
ENDBRANCH   3   4
ENDBRANCH   2   3
ENDBRANCH   1   2
BRANCH   1   7
ATOM      7  C   UNL     1       6.547  -1.361 -19.648  1.00  0.00     0.012 C 
BRANCH   7   8
ATOM      8  C   UNL     1       7.516  -1.052 -18.508  1.00  0.00     0.122 C 
BRANCH   8   9
ATOM      9  C   UNL     1       6.814  -0.987 -17.172  1.00  0.00     0.303 C 
ATOM     10  O   UNL     1       6.164  -1.888 -16.667  1.00  0.00    -0.252 OA
BRANCH   9  11
ATOM     11  O   UNL     1       6.982   0.211 -16.565  1.00  0.00    -0.481 OA
ATOM     12  H   UNL     1       7.155   0.146 -15.607  1.00  0.00     0.296 HD
ENDBRANCH   9  11
ENDBRANCH   8   9
ENDBRANCH   7   8
ENDBRANCH   1   7
TORSDOF 8
ENDMDL
MODEL 4
REMARK VINA RESULT:      -6.6      4.443      6.793
REMARK SMILES CCCCCCCCC(=O)O
REMARK SMILES IDX 6 1 5 2 4 3 3 4 2 5 1 6 7 7 8 8 9 9 10 10 11 11
REMARK H PARENT 11 12
ROOT
ATOM      1  C   UNL     1       6.711  -1.302 -19.649  1.00  0.00     0.001 C 
ENDROOT
BRANCH   1   2
ATOM      2  C   UNL     1       6.456  -2.809 -19.699  1.00  0.00     0.000 C 
BRANCH   2   3
ATOM      3  C   UNL     1       5.791  -3.218 -21.014  1.00  0.00    -0.000 C 
BRANCH   3   4
ATOM      4  C   UNL     1       5.521  -2.002 -21.901  1.00  0.00    -0.000 C 
BRANCH   4   5
ATOM      5  C   UNL     1       4.544  -2.342 -23.027  1.00  0.00    -0.003 C 
ATOM      6  C   UNL     1       4.858  -1.557 -24.291  1.00  0.00     0.004 C 
ENDBRANCH   4   5
ENDBRANCH   3   4
ENDBRANCH   2   3
ENDBRANCH   1   2
BRANCH   1   7
ATOM      7  C   UNL     1       7.997  -0.981 -18.885  1.00  0.00     0.012 C 
BRANCH   7   8
ATOM      8  C   UNL     1       7.781   0.144 -17.875  1.00  0.00     0.122 C 
BRANCH   8   9
ATOM      9  C   UNL     1       7.431  -0.386 -16.505  1.00  0.00     0.303 C 
ATOM     10  O   UNL     1       6.548  -1.193 -16.260  1.00  0.00    -0.252 OA
BRANCH   9  11
ATOM     11  O   UNL     1       8.218   0.139 -15.537  1.00  0.00    -0.481 OA
ATOM     12  H   UNL     1       9.048   0.526 -15.873  1.00  0.00     0.296 HD
ENDBRANCH   9  11
ENDBRANCH   8   9
ENDBRANCH   7   8
ENDBRANCH   1   7
TORSDOF 8
ENDMDL
MODEL 5
REMARK VINA RESULT:      -6.0      5.149      7.455
REMARK SMILES CCCCCCCCC(=O)O
REMARK SMILES IDX 6 1 5 2 4 3 3 4 2 5 1 6 7 7 8 8 9 9 10 10 11 11
REMARK H PARENT 11 12
ROOT
ATOM      1  C   UNL     1       7.918  -1.007 -18.940  1.00  0.00     0.001 C 
ENDROOT
BRANCH   1   2
ATOM      2  C   UNL     1       6.605  -1.317 -19.661  1.00  0.00     0.000 C 
BRANCH   2   3
ATOM      3  C   UNL     1       6.384  -2.825 -19.792  1.00  0.00    -0.000 C 
BRANCH   3   4
ATOM      4  C   UNL     1       5.965  -3.203 -21.214  1.00  0.00    -0.000 C 
BRANCH   4   5
ATOM      5  C   UNL     1       5.399  -1.998 -21.966  1.00  0.00    -0.003 C 
ATOM      6  C   UNL     1       4.477  -2.430 -23.094  1.00  0.00     0.004 C 
ENDBRANCH   4   5
ENDBRANCH   3   4
ENDBRANCH   2   3
ENDBRANCH   1   2
BRANCH   1   7
ATOM      7  C   UNL     1       7.675  -0.185 -17.673  1.00  0.00     0.012 C 
BRANCH   7   8
ATOM      8  C   UNL     1       8.990   0.214 -17.007  1.00  0.00     0.122 C 
BRANCH   8   9
ATOM      9  C   UNL     1       9.420  -0.787 -15.960  1.00  0.00     0.303 C 
ATOM     10  O   UNL     1      10.479  -0.768 -15.353  1.00  0.00    -0.252 OA
BRANCH   9  11
ATOM     11  O   UNL     1       8.485  -1.743 -15.752  1.00  0.00    -0.481 OA
ATOM     12  H   UNL     1       7.644  -1.577 -16.218  1.00  0.00     0.296 HD
ENDBRANCH   9  11
ENDBRANCH   8   9
ENDBRANCH   7   8
ENDBRANCH   1   7
TORSDOF 8
ENDMDL
MODEL 6
REMARK VINA RESULT:      -6.0     11.098     13.006
REMARK SMILES CCCCCCCCC(=O)O
REMARK SMILES IDX 6 1 5 2 4 3 3 4 2 5 1 6 7 7 8 8 9 9 10 10 11 11
REMARK H PARENT 11 12
ROOT
ATOM      1  C   UNL     1      -0.515  -8.556 -27.217  1.00  0.00     0.001 C 
ENDROOT
BRANCH   1   2
ATOM      2  C   UNL     1      -1.937  -8.883 -26.758  1.00  0.00     0.000 C 
BRANCH   2   3
ATOM      3  C   UNL     1      -2.929  -8.803 -27.919  1.00  0.00    -0.000 C 
BRANCH   3   4
ATOM      4  C   UNL     1      -3.975  -9.916 -27.833  1.00  0.00    -0.000 C 
BRANCH   4   5
ATOM      5  C   UNL     1      -5.094  -9.553 -26.857  1.00  0.00    -0.003 C 
ATOM      6  C   UNL     1      -5.703 -10.794 -26.224  1.00  0.00     0.004 C 
ENDBRANCH   4   5
ENDBRANCH   3   4
ENDBRANCH   2   3
ENDBRANCH   1   2
BRANCH   1   7
ATOM      7  C   UNL     1       0.460  -9.672 -26.840  1.00  0.00     0.012 C 
BRANCH   7   8
ATOM      8  C   UNL     1      -0.260 -10.841 -26.171  1.00  0.00     0.122 C 
BRANCH   8   9
ATOM      9  C   UNL     1       0.708 -11.835 -25.574  1.00  0.00     0.303 C 
ATOM     10  O   UNL     1       0.931 -12.956 -26.004  1.00  0.00    -0.252 OA
BRANCH   9  11
ATOM     11  O   UNL     1       1.330 -11.346 -24.475  1.00  0.00    -0.481 OA
ATOM     12  H   UNL     1       0.812 -11.446 -23.654  1.00  0.00     0.296 HD
ENDBRANCH   9  11
ENDBRANCH   8   9
ENDBRANCH   7   8
ENDBRANCH   1   7
TORSDOF 8
ENDMDL
MODEL 7
REMARK VINA RESULT:      -6.0     11.729     13.167
REMARK SMILES CCCCCCCCC(=O)O
REMARK SMILES IDX 6 1 5 2 4 3 3 4 2 5 1 6 7 7 8 8 9 9 10 10 11 11
REMARK H PARENT 11 12
ROOT
ATOM      1  C   UNL     1      -2.903  -8.971 -27.943  1.00  0.00     0.001 C 
ENDROOT
BRANCH   1   2
ATOM      2  C   UNL     1      -2.014  -8.815 -26.709  1.00  0.00     0.000 C 
BRANCH   2   3
ATOM      3  C   UNL     1      -0.531  -8.827 -27.084  1.00  0.00    -0.000 C 
BRANCH   3   4
ATOM      4  C   UNL     1       0.048 -10.241 -27.010  1.00  0.00    -0.000 C 
BRANCH   4   5
ATOM      5  C   UNL     1       0.391 -10.626 -25.571  1.00  0.00    -0.003 C 
ATOM      6  C   UNL     1       0.752 -12.099 -25.461  1.00  0.00     0.004 C 
ENDBRANCH   4   5
ENDBRANCH   3   4
ENDBRANCH   2   3
ENDBRANCH   1   2
BRANCH   1   7
ATOM      7  C   UNL     1      -3.931 -10.087 -27.749  1.00  0.00     0.012 C 
BRANCH   7   8
ATOM      8  C   UNL     1      -5.082  -9.635 -26.852  1.00  0.00     0.122 C 
BRANCH   8   9
ATOM      9  C   UNL     1      -5.848 -10.806 -26.283  1.00  0.00     0.303 C 
ATOM     10  O   UNL     1      -5.911 -11.107 -25.102  1.00  0.00    -0.252 OA
BRANCH   9  11
ATOM     11  O   UNL     1      -6.483 -11.517 -27.245  1.00  0.00    -0.481 OA
ATOM     12  H   UNL     1      -5.898 -12.127 -27.732  1.00  0.00     0.296 HD
ENDBRANCH   9  11
ENDBRANCH   8   9
ENDBRANCH   7   8
ENDBRANCH   1   7
TORSDOF 8
ENDMDL
MODEL 8
REMARK VINA RESULT:      -5.1      5.760      8.117
REMARK SMILES CCCCCCCCC(=O)O
REMARK SMILES IDX 6 1 5 2 4 3 3 4 2 5 1 6 7 7 8 8 9 9 10 10 11 11
REMARK H PARENT 11 12
ROOT
ATOM      1  C   UNL     1       8.210  -0.396 -17.981  1.00  0.00     0.001 C 
ENDROOT
BRANCH   1   2
ATOM      2  C   UNL     1       6.695  -0.589 -18.066  1.00  0.00     0.000 C 
BRANCH   2   3
ATOM      3  C   UNL     1       6.339  -1.924 -18.720  1.00  0.00    -0.000 C 
BRANCH   3   4
ATOM      4  C   UNL     1       6.737  -1.942 -20.197  1.00  0.00    -0.000 C 
BRANCH   4   5
ATOM      5  C   UNL     1       5.818  -2.854 -21.010  1.00  0.00    -0.003 C 
ATOM      6  C   UNL     1       5.213  -2.119 -22.195  1.00  0.00     0.004 C 
ENDBRANCH   4   5
ENDBRANCH   3   4
ENDBRANCH   2   3
ENDBRANCH   1   2
BRANCH   1   7
ATOM      7  C   UNL     1       8.610   0.285 -16.671  1.00  0.00     0.012 C 
BRANCH   7   8
ATOM      8  C   UNL     1       9.962  -0.221 -16.170  1.00  0.00     0.122 C 
BRANCH   8   9
ATOM      9  C   UNL     1      10.922   0.913 -15.893  1.00  0.00     0.303 C 
ATOM     10  O   UNL     1      12.123   0.798 -15.713  1.00  0.00    -0.252 OA
BRANCH   9  11
ATOM     11  O   UNL     1      10.298   2.114 -15.862  1.00  0.00    -0.481 OA
ATOM     12  H   UNL     1       9.795   2.317 -16.673  1.00  0.00     0.296 HD
ENDBRANCH   9  11
ENDBRANCH   8   9
ENDBRANCH   7   8
ENDBRANCH   1   7
TORSDOF 8
ENDMDL
MODEL 9
REMARK VINA RESULT:      -5.1      4.162      5.897
REMARK SMILES CCCCCCCCC(=O)O
REMARK SMILES IDX 6 1 5 2 4 3 3 4 2 5 1 6 7 7 8 8 9 9 10 10 11 11
REMARK H PARENT 11 12
ROOT
ATOM      1  C   UNL     1       8.128  -0.296 -18.179  1.00  0.00     0.001 C 
ENDROOT
BRANCH   1   2
ATOM      2  C   UNL     1       7.888   0.902 -17.259  1.00  0.00     0.000 C 
BRANCH   2   3
ATOM      3  C   UNL     1       8.726   0.801 -15.983  1.00  0.00    -0.000 C 
BRANCH   3   4
ATOM      4  C   UNL     1       9.728  -0.351 -16.066  1.00  0.00    -0.000 C 
BRANCH   4   5
ATOM      5  C   UNL     1      11.161   0.143 -15.868  1.00  0.00    -0.003 C 
ATOM      6  C   UNL     1      11.191   1.583 -15.382  1.00  0.00     0.004 C 
ENDBRANCH   4   5
ENDBRANCH   3   4
ENDBRANCH   2   3
ENDBRANCH   1   2
BRANCH   1   7
ATOM      7  C   UNL     1       6.879  -1.172 -18.287  1.00  0.00     0.012 C 
BRANCH   7   8
ATOM      8  C   UNL     1       6.576  -1.535 -19.740  1.00  0.00     0.122 C 
BRANCH   8   9
ATOM      9  C   UNL     1       6.461  -3.028 -19.937  1.00  0.00     0.303 C 
ATOM     10  O   UNL     1       6.471  -3.605 -21.013  1.00  0.00    -0.252 OA
BRANCH   9  11
ATOM     11  O   UNL     1       6.342  -3.691 -18.763  1.00  0.00    -0.481 OA
ATOM     12  H   UNL     1       5.421  -3.784 -18.456  1.00  0.00     0.296 HD
ENDBRANCH   9  11
ENDBRANCH   8   9
ENDBRANCH   7   8
ENDBRANCH   1   7
TORSDOF 8
ENDMDL
MODEL 10
REMARK VINA RESULT:      -4.9     13.780     16.577
REMARK SMILES CCCCCCCCC(=O)O
REMARK SMILES IDX 6 1 5 2 4 3 3 4 2 5 1 6 7 7 8 8 9 9 10 10 11 11
REMARK H PARENT 11 12
ROOT
ATOM      1  C   UNL     1      -6.931   1.008 -32.697  1.00  0.00     0.001 C 
ENDROOT
BRANCH   1   2
ATOM      2  C   UNL     1      -6.454   1.618 -31.379  1.00  0.00     0.000 C 
BRANCH   2   3
ATOM      3  C   UNL     1      -5.526   0.664 -30.626  1.00  0.00    -0.000 C 
BRANCH   3   4
ATOM      4  C   UNL     1      -6.029  -0.778 -30.707  1.00  0.00    -0.000 C 
BRANCH   4   5
ATOM      5  C   UNL     1      -5.286  -1.682 -29.723  1.00  0.00    -0.003 C 
ATOM      6  C   UNL     1      -3.785  -1.644 -29.958  1.00  0.00     0.004 C 
ENDBRANCH   4   5
ENDBRANCH   3   4
ENDBRANCH   2   3
ENDBRANCH   1   2
BRANCH   1   7
ATOM      7  C   UNL     1      -8.301   1.557 -33.100  1.00  0.00     0.012 C 
BRANCH   7   8
ATOM      8  C   UNL     1      -9.203   0.455 -33.652  1.00  0.00     0.122 C 
BRANCH   8   9
ATOM      9  C   UNL     1     -10.633   0.610 -33.188  1.00  0.00     0.303 C 
ATOM     10  O   UNL     1     -11.419  -0.303 -32.995  1.00  0.00    -0.252 OA
BRANCH   9  11
ATOM     11  O   UNL     1     -10.971   1.907 -32.997  1.00  0.00    -0.481 OA
ATOM     12  H   UNL     1     -10.329   2.539 -33.370  1.00  0.00     0.296 HD
ENDBRANCH   9  11
ENDBRANCH   8   9
ENDBRANCH   7   8
ENDBRANCH   1   7
TORSDOF 8
ENDMDL
