MODEL 1
REMARK VINA RESULT:      -8.4      0.000      0.000
REMARK SMILES O=C(/C=C/c1ccc(O)c(O)c1)O[C@@H]1C[C@](O)(C(=O)O)C[C@@H](O)[C@H]1O
REMARK SMILES IDX 2 1 1 2 13 3 14 4 21 5 22 6 16 7 24 8 15 9 23 10 17 12 18 14
REMARK SMILES IDX 19 15 20 16 25 18 3 20 4 21 5 22 12 23 6 24 10 25 7 26 8 27
REMARK SMILES IDX 11 28 9 30
REMARK H PARENT 23 11 17 13 20 17 25 19 11 29 9 31
ROOT
ATOM      1  C   UNL     1      -5.038   3.062 -30.351  1.00  0.00     0.331 C 
ATOM      2  O   UNL     1      -4.891   4.272 -30.449  1.00  0.00    -0.247 OA
ENDROOT
BRANCH   1   3
ATOM      3  O   UNL     1      -4.078   2.174 -30.001  1.00  0.00    -0.456 OA
BRANCH   3   4
ATOM      4  C   UNL     1      -4.545   0.857 -29.640  1.00  0.00     0.211 C 
ATOM      5  C   UNL     1      -4.009  -1.702 -28.222  1.00  0.00     0.082 C 
ATOM      6  C   UNL     1      -3.891  -1.605 -29.742  1.00  0.00     0.150 C 
ATOM      7  C   UNL     1      -4.984  -0.661 -27.657  1.00  0.00     0.167 C 
ATOM      8  C   UNL     1      -3.562  -0.180 -30.216  1.00  0.00     0.184 C 
ATOM      9  C   UNL     1      -4.615   0.750 -28.113  1.00  0.00     0.095 C 
BRANCH   6  10
ATOM     10  O   UNL     1      -5.108  -2.029 -30.378  1.00  0.00    -0.390 OA
ATOM     11  H   UNL     1      -5.382  -2.883 -29.983  1.00  0.00     0.211 HD
ENDBRANCH   6  10
BRANCH   7  12
ATOM     12  O   UNL     1      -6.311  -0.988 -28.126  1.00  0.00    -0.378 OA
ATOM     13  H   UNL     1      -6.229  -1.769 -28.715  1.00  0.00     0.212 HD
ENDBRANCH   7  12
BRANCH   7  14
ATOM     14  C   UNL     1      -4.974  -0.759 -26.123  1.00  0.00     0.335 C 
ATOM     15  O   UNL     1      -5.413  -1.696 -25.477  1.00  0.00    -0.249 OA
BRANCH  14  16
ATOM     16  O   UNL     1      -4.431   0.347 -25.555  1.00  0.00    -0.479 OA
ATOM     17  H   UNL     1      -4.620   1.133 -26.116  1.00  0.00     0.296 HD
ENDBRANCH  14  16
ENDBRANCH   7  14
BRANCH   8  18
ATOM     18  O   UNL     1      -3.616  -0.149 -31.649  1.00  0.00    -0.387 OA
ATOM     19  H   UNL     1      -3.372   0.765 -31.906  1.00  0.00     0.211 HD
ENDBRANCH   8  18
ENDBRANCH   3   4
ENDBRANCH   1   3
BRANCH   1  20
ATOM     20  C   UNL     1      -6.322   2.398 -30.657  1.00  0.00     0.094 C 
ATOM     21  C   UNL     1      -6.705   2.031 -31.890  1.00  0.00     0.016 C 
BRANCH  21  22
ATOM     22  C   UNL     1      -7.981   1.361 -32.171  1.00  0.00    -0.021 A 
ATOM     23  C   UNL     1      -8.911   1.080 -31.157  1.00  0.00     0.058 A 
ATOM     24  C   UNL     1      -8.299   1.048 -33.502  1.00  0.00     0.012 A 
ATOM     25  C   UNL     1     -10.120   0.474 -31.484  1.00  0.00     0.157 A 
ATOM     26  C   UNL     1      -9.515   0.437 -33.821  1.00  0.00     0.051 A 
ATOM     27  C   UNL     1     -10.415   0.154 -32.805  1.00  0.00     0.157 A 
BRANCH  25  28
ATOM     28  O   UNL     1     -11.060   0.177 -30.535  1.00  0.00    -0.504 OA
ATOM     29  H   UNL     1     -11.939   0.243 -30.945  1.00  0.00     0.293 HD
ENDBRANCH  25  28
BRANCH  27  30
ATOM     30  O   UNL     1     -11.604  -0.440 -33.116  1.00  0.00    -0.504 OA
ATOM     31  H   UNL     1     -11.461  -0.827 -34.003  1.00  0.00     0.293 HD
ENDBRANCH  27  30
ENDBRANCH  21  22
ENDBRANCH   1  20
TORSDOF 11
ENDMDL
MODEL 2
REMARK VINA RESULT:      -8.1      1.743      4.203
REMARK SMILES O=C(/C=C/c1ccc(O)c(O)c1)O[C@@H]1C[C@](O)(C(=O)O)C[C@@H](O)[C@H]1O
REMARK SMILES IDX 2 1 1 2 13 3 14 4 21 5 22 6 16 7 24 8 15 9 23 10 17 12 18 14
REMARK SMILES IDX 19 15 20 16 25 18 3 20 4 21 5 22 12 23 6 24 10 25 7 26 8 27
REMARK SMILES IDX 11 28 9 30
REMARK H PARENT 23 11 17 13 20 17 25 19 11 29 9 31
ROOT
ATOM      1  C   UNL     1      -6.853  -1.202 -27.275  1.00  0.00     0.331 C 
ATOM      2  O   UNL     1      -7.283  -1.417 -26.150  1.00  0.00    -0.247 OA
ENDROOT
BRANCH   1   3
ATOM      3  O   UNL     1      -5.622  -1.535 -27.728  1.00  0.00    -0.456 OA
BRANCH   3   4
ATOM      4  C   UNL     1      -4.788  -0.432 -28.141  1.00  0.00     0.211 C 
ATOM      5  C   UNL     1      -2.042   0.594 -28.646  1.00  0.00     0.082 C 
ATOM      6  C   UNL     1      -2.809   0.984 -27.383  1.00  0.00     0.150 C 
ATOM      7  C   UNL     1      -2.988   0.232 -29.798  1.00  0.00     0.167 C 
ATOM      8  C   UNL     1      -3.847  -0.075 -26.975  1.00  0.00     0.184 C 
ATOM      9  C   UNL     1      -3.986  -0.846 -29.380  1.00  0.00     0.095 C 
BRANCH   6  10
ATOM     10  O   UNL     1      -3.482   2.241 -27.560  1.00  0.00    -0.390 OA
ATOM     11  H   UNL     1      -3.614   2.388 -28.519  1.00  0.00     0.211 HD
ENDBRANCH   6  10
BRANCH   7  12
ATOM     12  O   UNL     1      -3.702   1.427 -30.184  1.00  0.00    -0.378 OA
ATOM     13  H   UNL     1      -4.289   1.672 -29.437  1.00  0.00     0.212 HD
ENDBRANCH   7  12
BRANCH   7  14
ATOM     14  C   UNL     1      -2.146  -0.238 -30.996  1.00  0.00     0.335 C 
ATOM     15  O   UNL     1      -0.956  -0.018 -31.147  1.00  0.00    -0.249 OA
BRANCH  14  16
ATOM     16  O   UNL     1      -2.897  -0.921 -31.896  1.00  0.00    -0.479 OA
ATOM     17  H   UNL     1      -3.541  -1.495 -31.422  1.00  0.00     0.296 HD
ENDBRANCH  14  16
ENDBRANCH   7  14
BRANCH   8  18
ATOM     18  O   UNL     1      -4.615   0.435 -25.876  1.00  0.00    -0.387 OA
ATOM     19  H   UNL     1      -4.950   1.309 -26.167  1.00  0.00     0.211 HD
ENDBRANCH   8  18
ENDBRANCH   3   4
ENDBRANCH   1   3
BRANCH   1  20
ATOM     20  C   UNL     1      -7.646  -0.488 -28.296  1.00  0.00     0.094 C 
ATOM     21  C   UNL     1      -7.958  -0.995 -29.499  1.00  0.00     0.016 C 
BRANCH  21  22
ATOM     22  C   UNL     1      -8.758  -0.272 -30.496  1.00  0.00    -0.021 A 
ATOM     23  C   UNL     1      -9.882  -0.853 -31.107  1.00  0.00     0.058 A 
ATOM     24  C   UNL     1      -8.419   1.055 -30.798  1.00  0.00     0.012 A 
ATOM     25  C   UNL     1     -10.624  -0.110 -32.021  1.00  0.00     0.157 A 
ATOM     26  C   UNL     1      -9.169   1.792 -31.719  1.00  0.00     0.051 A 
ATOM     27  C   UNL     1     -10.266   1.199 -32.324  1.00  0.00     0.157 A 
BRANCH  25  28
ATOM     28  O   UNL     1     -11.726  -0.627 -32.646  1.00  0.00    -0.504 OA
ATOM     29  H   UNL     1     -11.888  -1.518 -32.294  1.00  0.00     0.293 HD
ENDBRANCH  25  28
BRANCH  27  30
ATOM     30  O   UNL     1     -11.002   1.919 -33.221  1.00  0.00    -0.504 OA
ATOM     31  H   UNL     1     -10.339   2.428 -33.729  1.00  0.00     0.293 HD
ENDBRANCH  27  30
ENDBRANCH  21  22
ENDBRANCH   1  20
TORSDOF 11
ENDMDL
MODEL 3
REMARK VINA RESULT:      -7.9      3.786      4.546
REMARK SMILES O=C(/C=C/c1ccc(O)c(O)c1)O[C@@H]1C[C@](O)(C(=O)O)C[C@@H](O)[C@H]1O
REMARK SMILES IDX 2 1 1 2 13 3 14 4 21 5 22 6 16 7 24 8 15 9 23 10 17 12 18 14
REMARK SMILES IDX 19 15 20 16 25 18 3 20 4 21 5 22 12 23 6 24 10 25 7 26 8 27
REMARK SMILES IDX 11 28 9 30
REMARK H PARENT 23 11 17 13 20 17 25 19 11 29 9 31
ROOT
ATOM      1  C   UNL     1      -7.674  -0.449 -30.988  1.00  0.00     0.331 C 
ATOM      2  O   UNL     1      -7.479  -0.300 -32.186  1.00  0.00    -0.247 OA
ENDROOT
BRANCH   1   3
ATOM      3  O   UNL     1      -7.032   0.208 -29.994  1.00  0.00    -0.456 OA
BRANCH   3   4
ATOM      4  C   UNL     1      -6.022  -0.548 -29.294  1.00  0.00     0.211 C 
ATOM      5  C   UNL     1      -3.748  -0.537 -27.376  1.00  0.00     0.082 C 
ATOM      6  C   UNL     1      -3.508  -0.643 -28.881  1.00  0.00     0.150 C 
ATOM      7  C   UNL     1      -5.130  -1.073 -26.979  1.00  0.00     0.167 C 
ATOM      8  C   UNL     1      -4.640  -0.005 -29.703  1.00  0.00     0.184 C 
ATOM      9  C   UNL     1      -6.239  -0.399 -27.784  1.00  0.00     0.095 C 
BRANCH   6  10
ATOM     10  O   UNL     1      -3.370  -2.016 -29.282  1.00  0.00    -0.390 OA
ATOM     11  H   UNL     1      -2.561  -2.380 -28.865  1.00  0.00     0.211 HD
ENDBRANCH   6  10
BRANCH   7  12
ATOM     12  O   UNL     1      -5.148  -2.496 -27.231  1.00  0.00    -0.378 OA
ATOM     13  H   UNL     1      -4.818  -2.940 -26.420  1.00  0.00     0.212 HD
ENDBRANCH   7  12
BRANCH   7  14
ATOM     14  C   UNL     1      -5.331  -0.845 -25.472  1.00  0.00     0.335 C 
ATOM     15  O   UNL     1      -5.980  -1.566 -24.733  1.00  0.00    -0.249 OA
BRANCH  14  16
ATOM     16  O   UNL     1      -4.710   0.286 -25.051  1.00  0.00    -0.479 OA
ATOM     17  H   UNL     1      -4.563   0.887 -25.816  1.00  0.00     0.296 HD
ENDBRANCH  14  16
ENDBRANCH   7  14
BRANCH   8  18
ATOM     18  O   UNL     1      -4.409  -0.278 -31.092  1.00  0.00    -0.387 OA
ATOM     19  H   UNL     1      -5.164  -0.829 -31.386  1.00  0.00     0.211 HD
ENDBRANCH   8  18
ENDBRANCH   3   4
ENDBRANCH   1   3
BRANCH   1  20
ATOM     20  C   UNL     1      -8.641  -1.436 -30.466  1.00  0.00     0.094 C 
ATOM     21  C   UNL     1      -8.313  -2.675 -30.067  1.00  0.00     0.016 C 
BRANCH  21  22
ATOM     22  C   UNL     1      -9.289  -3.637 -29.540  1.00  0.00    -0.021 A 
ATOM     23  C   UNL     1      -9.946  -4.559 -30.372  1.00  0.00     0.058 A 
ATOM     24  C   UNL     1      -9.525  -3.669 -28.157  1.00  0.00     0.012 A 
ATOM     25  C   UNL     1     -10.837  -5.471 -29.814  1.00  0.00     0.157 A 
ATOM     26  C   UNL     1     -10.423  -4.588 -27.606  1.00  0.00     0.051 A 
ATOM     27  C   UNL     1     -11.074  -5.480 -28.444  1.00  0.00     0.157 A 
BRANCH  25  28
ATOM     28  O   UNL     1     -11.504  -6.389 -30.579  1.00  0.00    -0.504 OA
ATOM     29  H   UNL     1     -10.848  -6.932 -31.047  1.00  0.00     0.293 HD
ENDBRANCH  25  28
BRANCH  27  30
ATOM     30  O   UNL     1     -11.949  -6.380 -27.907  1.00  0.00    -0.504 OA
ATOM     31  H   UNL     1     -11.567  -7.254 -28.125  1.00  0.00     0.293 HD
ENDBRANCH  27  30
ENDBRANCH  21  22
ENDBRANCH   1  20
TORSDOF 11
ENDMDL
MODEL 4
REMARK VINA RESULT:      -7.9      4.078      6.522
REMARK SMILES O=C(/C=C/c1ccc(O)c(O)c1)O[C@@H]1C[C@](O)(C(=O)O)C[C@@H](O)[C@H]1O
REMARK SMILES IDX 2 1 1 2 13 3 14 4 21 5 22 6 16 7 24 8 15 9 23 10 17 12 18 14
REMARK SMILES IDX 19 15 20 16 25 18 3 20 4 21 5 22 12 23 6 24 10 25 7 26 8 27
REMARK SMILES IDX 11 28 9 30
REMARK H PARENT 23 11 17 13 20 17 25 19 11 29 9 31
ROOT
ATOM      1  C   UNL     1      -6.139  -2.080 -29.671  1.00  0.00     0.331 C 
ATOM      2  O   UNL     1      -5.094  -1.868 -29.072  1.00  0.00    -0.247 OA
ENDROOT
BRANCH   1   3
ATOM      3  O   UNL     1      -6.417  -1.694 -30.939  1.00  0.00    -0.456 OA
BRANCH   3   4
ATOM      4  C   UNL     1      -7.037  -0.398 -31.076  1.00  0.00     0.211 C 
ATOM      5  C   UNL     1      -7.940   1.780 -32.890  1.00  0.00     0.082 C 
ATOM      6  C   UNL     1      -6.655   1.918 -32.073  1.00  0.00     0.150 C 
ATOM      7  C   UNL     1      -8.938   0.823 -32.227  1.00  0.00     0.167 C 
ATOM      8  C   UNL     1      -6.024   0.556 -31.738  1.00  0.00     0.184 C 
ATOM      9  C   UNL     1      -8.298  -0.534 -31.936  1.00  0.00     0.095 C 
BRANCH   6  10
ATOM     10  O   UNL     1      -6.902   2.622 -30.845  1.00  0.00    -0.390 OA
ATOM     11  H   UNL     1      -7.374   3.454 -31.056  1.00  0.00     0.211 HD
ENDBRANCH   6  10
BRANCH   7  12
ATOM     12  O   UNL     1      -9.380   1.423 -30.989  1.00  0.00    -0.378 OA
ATOM     13  H   UNL     1      -8.779   1.109 -30.280  1.00  0.00     0.212 HD
ENDBRANCH   7  12
BRANCH   7  14
ATOM     14  C   UNL     1     -10.156   0.665 -33.151  1.00  0.00     0.335 C 
ATOM     15  O   UNL     1     -10.334  -0.257 -33.929  1.00  0.00    -0.249 OA
BRANCH  14  16
ATOM     16  O   UNL     1     -11.022   1.702 -33.016  1.00  0.00    -0.479 OA
ATOM     17  H   UNL     1     -11.394   1.938 -33.897  1.00  0.00     0.296 HD
ENDBRANCH  14  16
ENDBRANCH   7  14
BRANCH   8  18
ATOM     18  O   UNL     1      -4.916   0.769 -30.853  1.00  0.00    -0.387 OA
ATOM     19  H   UNL     1      -4.639  -0.121 -30.551  1.00  0.00     0.211 HD
ENDBRANCH   8  18
ENDBRANCH   3   4
ENDBRANCH   1   3
BRANCH   1  20
ATOM     20  C   UNL     1      -7.280  -2.773 -29.040  1.00  0.00     0.094 C 
ATOM     21  C   UNL     1      -8.098  -3.621 -29.684  1.00  0.00     0.016 C 
BRANCH  21  22
ATOM     22  C   UNL     1      -9.220  -4.309 -29.034  1.00  0.00    -0.021 A 
ATOM     23  C   UNL     1      -9.701  -3.918 -27.774  1.00  0.00     0.058 A 
ATOM     24  C   UNL     1      -9.863  -5.349 -29.723  1.00  0.00     0.012 A 
ATOM     25  C   UNL     1     -10.790  -4.583 -27.219  1.00  0.00     0.157 A 
ATOM     26  C   UNL     1     -10.955  -6.013 -29.156  1.00  0.00     0.051 A 
ATOM     27  C   UNL     1     -11.407  -5.624 -27.905  1.00  0.00     0.157 A 
BRANCH  25  28
ATOM     28  O   UNL     1     -11.297  -4.243 -25.994  1.00  0.00    -0.504 OA
ATOM     29  H   UNL     1     -11.159  -3.290 -25.860  1.00  0.00     0.293 HD
ENDBRANCH  25  28
BRANCH  27  30
ATOM     30  O   UNL     1     -12.475  -6.269 -27.352  1.00  0.00    -0.504 OA
ATOM     31  H   UNL     1     -12.488  -7.142 -27.793  1.00  0.00     0.293 HD
ENDBRANCH  27  30
ENDBRANCH  21  22
ENDBRANCH   1  20
TORSDOF 11
ENDMDL
MODEL 5
REMARK VINA RESULT:      -7.9      3.861      5.271
REMARK SMILES O=C(/C=C/c1ccc(O)c(O)c1)O[C@@H]1C[C@](O)(C(=O)O)C[C@@H](O)[C@H]1O
REMARK SMILES IDX 2 1 1 2 13 3 14 4 21 5 22 6 16 7 24 8 15 9 23 10 17 12 18 14
REMARK SMILES IDX 19 15 20 16 25 18 3 20 4 21 5 22 12 23 6 24 10 25 7 26 8 27
REMARK SMILES IDX 11 28 9 30
REMARK H PARENT 23 11 17 13 20 17 25 19 11 29 9 31
ROOT
ATOM      1  C   UNL     1      -6.806  -0.996 -30.900  1.00  0.00     0.331 C 
ATOM      2  O   UNL     1      -6.934  -0.205 -31.825  1.00  0.00    -0.247 OA
ENDROOT
BRANCH   1   3
ATOM      3  O   UNL     1      -5.660  -1.242 -30.222  1.00  0.00    -0.456 OA
BRANCH   3   4
ATOM      4  C   UNL     1      -5.378  -0.348 -29.125  1.00  0.00     0.211 C 
ATOM      5  C   UNL     1      -3.351   1.220 -27.615  1.00  0.00     0.082 C 
ATOM      6  C   UNL     1      -3.896  -0.098 -27.066  1.00  0.00     0.150 C 
ATOM      7  C   UNL     1      -4.348   1.899 -28.562  1.00  0.00     0.167 C 
ATOM      8  C   UNL     1      -4.381  -1.042 -28.179  1.00  0.00     0.184 C 
ATOM      9  C   UNL     1      -4.787   0.953 -29.678  1.00  0.00     0.095 C 
BRANCH   6  10
ATOM     10  O   UNL     1      -4.985   0.136 -26.159  1.00  0.00    -0.390 OA
ATOM     11  H   UNL     1      -5.222  -0.714 -25.734  1.00  0.00     0.211 HD
ENDBRANCH   6  10
BRANCH   7  12
ATOM     12  O   UNL     1      -5.500   2.299 -27.788  1.00  0.00    -0.378 OA
ATOM     13  H   UNL     1      -6.027   1.492 -27.608  1.00  0.00     0.212 HD
ENDBRANCH   7  12
BRANCH   7  14
ATOM     14  C   UNL     1      -3.692   3.163 -29.142  1.00  0.00     0.335 C 
ATOM     15  O   UNL     1      -3.006   3.951 -28.512  1.00  0.00    -0.249 OA
BRANCH  14  16
ATOM     16  O   UNL     1      -3.985   3.318 -30.458  1.00  0.00    -0.479 OA
ATOM     17  H   UNL     1      -4.501   2.543 -30.775  1.00  0.00     0.296 HD
ENDBRANCH  14  16
ENDBRANCH   7  14
BRANCH   8  18
ATOM     18  O   UNL     1      -5.006  -2.182 -27.574  1.00  0.00    -0.387 OA
ATOM     19  H   UNL     1      -4.276  -2.730 -27.218  1.00  0.00     0.211 HD
ENDBRANCH   8  18
ENDBRANCH   3   4
ENDBRANCH   1   3
BRANCH   1  20
ATOM     20  C   UNL     1      -7.923  -1.838 -30.426  1.00  0.00     0.094 C 
ATOM     21  C   UNL     1      -7.775  -3.074 -29.924  1.00  0.00     0.016 C 
BRANCH  21  22
ATOM     22  C   UNL     1      -8.898  -3.890 -29.447  1.00  0.00    -0.021 A 
ATOM     23  C   UNL     1      -9.653  -4.694 -30.317  1.00  0.00     0.058 A 
ATOM     24  C   UNL     1      -9.183  -3.907 -28.073  1.00  0.00     0.012 A 
ATOM     25  C   UNL     1     -10.686  -5.474 -29.805  1.00  0.00     0.157 A 
ATOM     26  C   UNL     1     -10.224  -4.692 -27.568  1.00  0.00     0.051 A 
ATOM     27  C   UNL     1     -10.969  -5.468 -28.443  1.00  0.00     0.157 A 
BRANCH  25  28
ATOM     28  O   UNL     1     -11.454  -6.274 -30.608  1.00  0.00    -0.504 OA
ATOM     29  H   UNL     1     -10.861  -6.800 -31.171  1.00  0.00     0.293 HD
ENDBRANCH  25  28
BRANCH  27  30
ATOM     30  O   UNL     1     -11.983  -6.237 -27.952  1.00  0.00    -0.504 OA
ATOM     31  H   UNL     1     -12.758  -6.001 -28.500  1.00  0.00     0.293 HD
ENDBRANCH  27  30
ENDBRANCH  21  22
ENDBRANCH   1  20
TORSDOF 11
ENDMDL
MODEL 6
REMARK VINA RESULT:      -7.9      5.562      7.334
REMARK SMILES O=C(/C=C/c1ccc(O)c(O)c1)O[C@@H]1C[C@](O)(C(=O)O)C[C@@H](O)[C@H]1O
REMARK SMILES IDX 2 1 1 2 13 3 14 4 21 5 22 6 16 7 24 8 15 9 23 10 17 12 18 14
REMARK SMILES IDX 19 15 20 16 25 18 3 20 4 21 5 22 12 23 6 24 10 25 7 26 8 27
REMARK SMILES IDX 11 28 9 30
REMARK H PARENT 23 11 17 13 20 17 25 19 11 29 9 31
ROOT
ATOM      1  C   UNL     1      -9.966  -4.926 -29.742  1.00  0.00     0.331 C 
ATOM      2  O   UNL     1     -10.566  -5.806 -30.345  1.00  0.00    -0.247 OA
ENDROOT
BRANCH   1   3
ATOM      3  O   UNL     1      -9.697  -4.918 -28.416  1.00  0.00    -0.456 OA
BRANCH   3   4
ATOM      4  C   UNL     1     -10.835  -4.728 -27.548  1.00  0.00     0.211 C 
ATOM      5  C   UNL     1     -11.911  -4.723 -24.775  1.00  0.00     0.082 C 
ATOM      6  C   UNL     1     -12.189  -5.887 -25.725  1.00  0.00     0.150 C 
ATOM      7  C   UNL     1     -11.645  -3.417 -25.535  1.00  0.00     0.167 C 
ATOM      8  C   UNL     1     -11.095  -6.046 -26.795  1.00  0.00     0.184 C 
ATOM      9  C   UNL     1     -10.532  -3.591 -26.566  1.00  0.00     0.095 C 
BRANCH   6  10
ATOM     10  O   UNL     1     -13.453  -5.718 -26.386  1.00  0.00    -0.390 OA
ATOM     11  H   UNL     1     -14.151  -5.641 -25.702  1.00  0.00     0.211 HD
ENDBRANCH   6  10
BRANCH   7  12
ATOM     12  O   UNL     1     -12.867  -3.031 -26.204  1.00  0.00    -0.378 OA
ATOM     13  H   UNL     1     -13.245  -2.273 -25.709  1.00  0.00     0.212 HD
ENDBRANCH   7  12
BRANCH   7  14
ATOM     14  C   UNL     1     -11.283  -2.322 -24.519  1.00  0.00     0.335 C 
ATOM     15  O   UNL     1     -10.962  -1.179 -24.802  1.00  0.00    -0.249 OA
BRANCH  14  16
ATOM     16  O   UNL     1     -11.341  -2.784 -23.244  1.00  0.00    -0.479 OA
ATOM     17  H   UNL     1     -10.898  -3.661 -23.190  1.00  0.00     0.296 HD
ENDBRANCH  14  16
ENDBRANCH   7  14
BRANCH   8  18
ATOM     18  O   UNL     1     -11.506  -7.058 -27.724  1.00  0.00    -0.387 OA
ATOM     19  H   UNL     1     -11.067  -7.884 -27.431  1.00  0.00     0.211 HD
ENDBRANCH   8  18
ENDBRANCH   3   4
ENDBRANCH   1   3
BRANCH   1  20
ATOM     20  C   UNL     1      -9.484  -3.702 -30.414  1.00  0.00     0.094 C 
ATOM     21  C   UNL     1     -10.275  -2.678 -30.771  1.00  0.00     0.016 C 
BRANCH  21  22
ATOM     22  C   UNL     1      -9.773  -1.464 -31.428  1.00  0.00    -0.021 A 
ATOM     23  C   UNL     1     -10.637  -0.449 -31.871  1.00  0.00     0.058 A 
ATOM     24  C   UNL     1      -8.386  -1.293 -31.561  1.00  0.00     0.012 A 
ATOM     25  C   UNL     1     -10.106   0.696 -32.457  1.00  0.00     0.157 A 
ATOM     26  C   UNL     1      -7.862  -0.140 -32.152  1.00  0.00     0.051 A 
ATOM     27  C   UNL     1      -8.730   0.844 -32.597  1.00  0.00     0.157 A 
BRANCH  25  28
ATOM     28  O   UNL     1     -10.902   1.714 -32.907  1.00  0.00    -0.504 OA
ATOM     29  H   UNL     1     -10.565   2.550 -32.542  1.00  0.00     0.293 HD
ENDBRANCH  25  28
BRANCH  27  30
ATOM     30  O   UNL     1      -8.219   1.972 -33.172  1.00  0.00    -0.504 OA
ATOM     31  H   UNL     1      -7.251   1.830 -33.174  1.00  0.00     0.293 HD
ENDBRANCH  27  30
ENDBRANCH  21  22
ENDBRANCH   1  20
TORSDOF 11
ENDMDL
MODEL 7
REMARK VINA RESULT:      -7.7      2.775      7.125
REMARK SMILES O=C(/C=C/c1ccc(O)c(O)c1)O[C@@H]1C[C@](O)(C(=O)O)C[C@@H](O)[C@H]1O
REMARK SMILES IDX 2 1 1 2 13 3 14 4 21 5 22 6 16 7 24 8 15 9 23 10 17 12 18 14
REMARK SMILES IDX 19 15 20 16 25 18 3 20 4 21 5 22 12 23 6 24 10 25 7 26 8 27
REMARK SMILES IDX 11 28 9 30
REMARK H PARENT 23 11 17 13 20 17 25 19 11 29 9 31
ROOT
ATOM      1  C   UNL     1      -8.214  -1.294 -26.422  1.00  0.00     0.331 C 
ATOM      2  O   UNL     1      -8.158  -1.417 -25.206  1.00  0.00    -0.247 OA
ENDROOT
BRANCH   1   3
ATOM      3  O   UNL     1      -9.296  -1.552 -27.194  1.00  0.00    -0.456 OA
BRANCH   3   4
ATOM      4  C   UNL     1      -9.027  -1.778 -28.594  1.00  0.00     0.211 C 
ATOM      5  C   UNL     1     -10.082  -2.540 -31.268  1.00  0.00     0.082 C 
ATOM      6  C   UNL     1      -9.271  -3.528 -30.431  1.00  0.00     0.150 C 
ATOM      7  C   UNL     1      -9.737  -1.085 -30.927  1.00  0.00     0.167 C 
ATOM      8  C   UNL     1      -9.372  -3.242 -28.923  1.00  0.00     0.184 C 
ATOM      9  C   UNL     1      -9.878  -0.816 -29.430  1.00  0.00     0.095 C 
BRANCH   6  10
ATOM     10  O   UNL     1      -7.885  -3.503 -30.809  1.00  0.00    -0.390 OA
ATOM     11  H   UNL     1      -7.816  -3.109 -31.704  1.00  0.00     0.211 HD
ENDBRANCH   6  10
BRANCH   7  12
ATOM     12  O   UNL     1      -8.372  -0.841 -31.334  1.00  0.00    -0.378 OA
ATOM     13  H   UNL     1      -8.381  -0.074 -31.945  1.00  0.00     0.212 HD
ENDBRANCH   7  12
BRANCH   7  14
ATOM     14  C   UNL     1     -10.656  -0.158 -31.738  1.00  0.00     0.335 C 
ATOM     15  O   UNL     1     -11.461  -0.526 -32.578  1.00  0.00    -0.249 OA
BRANCH  14  16
ATOM     16  O   UNL     1     -10.454   1.147 -31.424  1.00  0.00    -0.479 OA
ATOM     17  H   UNL     1     -10.526   1.698 -32.237  1.00  0.00     0.296 HD
ENDBRANCH  14  16
ENDBRANCH   7  14
BRANCH   8  18
ATOM     18  O   UNL     1      -8.472  -4.116 -28.229  1.00  0.00    -0.387 OA
ATOM     19  H   UNL     1      -8.234  -4.818 -28.870  1.00  0.00     0.211 HD
ENDBRANCH   8  18
ENDBRANCH   3   4
ENDBRANCH   1   3
BRANCH   1  20
ATOM     20  C   UNL     1      -7.047  -0.875 -27.225  1.00  0.00     0.094 C 
ATOM     21  C   UNL     1      -5.789  -1.282 -26.994  1.00  0.00     0.016 C 
BRANCH  21  22
ATOM     22  C   UNL     1      -4.644  -0.862 -27.812  1.00  0.00    -0.021 A 
ATOM     23  C   UNL     1      -3.641  -0.018 -27.307  1.00  0.00     0.058 A 
ATOM     24  C   UNL     1      -4.524  -1.369 -29.115  1.00  0.00     0.012 A 
ATOM     25  C   UNL     1      -2.560   0.321 -28.115  1.00  0.00     0.157 A 
ATOM     26  C   UNL     1      -3.436  -1.021 -29.920  1.00  0.00     0.051 A 
ATOM     27  C   UNL     1      -2.463  -0.175 -29.411  1.00  0.00     0.157 A 
BRANCH  25  28
ATOM     28  O   UNL     1      -1.556   1.140 -27.674  1.00  0.00    -0.504 OA
ATOM     29  H   UNL     1      -0.814   0.585 -27.382  1.00  0.00     0.293 HD
ENDBRANCH  25  28
BRANCH  27  30
ATOM     30  O   UNL     1      -1.398   0.163 -30.195  1.00  0.00    -0.504 OA
ATOM     31  H   UNL     1      -1.608   1.061 -30.520  1.00  0.00     0.293 HD
ENDBRANCH  27  30
ENDBRANCH  21  22
ENDBRANCH   1  20
TORSDOF 11
ENDMDL
MODEL 8
REMARK VINA RESULT:      -7.7      2.134      4.317
REMARK SMILES O=C(/C=C/c1ccc(O)c(O)c1)O[C@@H]1C[C@](O)(C(=O)O)C[C@@H](O)[C@H]1O
REMARK SMILES IDX 2 1 1 2 13 3 14 4 21 5 22 6 16 7 24 8 15 9 23 10 17 12 18 14
REMARK SMILES IDX 19 15 20 16 25 18 3 20 4 21 5 22 12 23 6 24 10 25 7 26 8 27
REMARK SMILES IDX 11 28 9 30
REMARK H PARENT 23 11 17 13 20 17 25 19 11 29 9 31
ROOT
ATOM      1  C   UNL     1      -7.332  -3.068 -28.495  1.00  0.00     0.331 C 
ATOM      2  O   UNL     1      -8.021  -4.039 -28.214  1.00  0.00    -0.247 OA
ENDROOT
BRANCH   1   3
ATOM      3  O   UNL     1      -6.042  -2.881 -28.131  1.00  0.00    -0.456 OA
BRANCH   3   4
ATOM      4  C   UNL     1      -5.672  -1.523 -27.813  1.00  0.00     0.211 C 
ATOM      5  C   UNL     1      -3.745   0.316 -26.489  1.00  0.00     0.082 C 
ATOM      6  C   UNL     1      -5.095  -0.004 -25.849  1.00  0.00     0.150 C 
ATOM      7  C   UNL     1      -3.785   0.158 -28.015  1.00  0.00     0.167 C 
ATOM      8  C   UNL     1      -5.640  -1.376 -26.281  1.00  0.00     0.184 C 
ATOM      9  C   UNL     1      -4.296  -1.224 -28.418  1.00  0.00     0.095 C 
BRANCH   6  10
ATOM     10  O   UNL     1      -6.069   1.000 -26.180  1.00  0.00    -0.390 OA
ATOM     11  H   UNL     1      -5.619   1.870 -26.207  1.00  0.00     0.211 HD
ENDBRANCH   6  10
BRANCH   7  12
ATOM     12  O   UNL     1      -4.666   1.172 -28.547  1.00  0.00    -0.378 OA
ATOM     13  H   UNL     1      -4.976   0.859 -29.424  1.00  0.00     0.212 HD
ENDBRANCH   7  12
BRANCH   7  14
ATOM     14  C   UNL     1      -2.373   0.403 -28.572  1.00  0.00     0.335 C 
ATOM     15  O   UNL     1      -2.004   0.120 -29.699  1.00  0.00    -0.249 OA
BRANCH  14  16
ATOM     16  O   UNL     1      -1.559   0.962 -27.641  1.00  0.00    -0.479 OA
ATOM     17  H   UNL     1      -2.069   1.608 -27.101  1.00  0.00     0.296 HD
ENDBRANCH  14  16
ENDBRANCH   7  14
BRANCH   8  18
ATOM     18  O   UNL     1      -6.966  -1.529 -25.755  1.00  0.00    -0.387 OA
ATOM     19  H   UNL     1      -7.509  -1.868 -26.496  1.00  0.00     0.211 HD
ENDBRANCH   8  18
ENDBRANCH   3   4
ENDBRANCH   1   3
BRANCH   1  20
ATOM     20  C   UNL     1      -7.865  -1.922 -29.259  1.00  0.00     0.094 C 
ATOM     21  C   UNL     1      -8.000  -1.904 -30.595  1.00  0.00     0.016 C 
BRANCH  21  22
ATOM     22  C   UNL     1      -8.543  -0.758 -31.335  1.00  0.00    -0.021 A 
ATOM     23  C   UNL     1      -9.475  -0.920 -32.374  1.00  0.00     0.058 A 
ATOM     24  C   UNL     1      -8.160   0.536 -30.950  1.00  0.00     0.012 A 
ATOM     25  C   UNL     1      -9.983   0.204 -33.020  1.00  0.00     0.157 A 
ATOM     26  C   UNL     1      -8.674   1.658 -31.606  1.00  0.00     0.051 A 
ATOM     27  C   UNL     1      -9.581   1.480 -32.639  1.00  0.00     0.157 A 
BRANCH  25  28
ATOM     28  O   UNL     1     -10.891   0.103 -34.038  1.00  0.00    -0.504 OA
ATOM     29  H   UNL     1     -10.755   0.850 -34.645  1.00  0.00     0.293 HD
ENDBRANCH  25  28
BRANCH  27  30
ATOM     30  O   UNL     1     -10.086   2.575 -33.278  1.00  0.00    -0.504 OA
ATOM     31  H   UNL     1      -9.298   3.104 -33.518  1.00  0.00     0.293 HD
ENDBRANCH  27  30
ENDBRANCH  21  22
ENDBRANCH   1  20
TORSDOF 11
ENDMDL
MODEL 9
REMARK VINA RESULT:      -7.7      4.820      8.013
REMARK SMILES O=C(/C=C/c1ccc(O)c(O)c1)O[C@@H]1C[C@](O)(C(=O)O)C[C@@H](O)[C@H]1O
REMARK SMILES IDX 2 1 1 2 13 3 14 4 21 5 22 6 16 7 24 8 15 9 23 10 17 12 18 14
REMARK SMILES IDX 19 15 20 16 25 18 3 20 4 21 5 22 12 23 6 24 10 25 7 26 8 27
REMARK SMILES IDX 11 28 9 30
REMARK H PARENT 23 11 17 13 20 17 25 19 11 29 9 31
ROOT
ATOM      1  C   UNL     1      -7.984  -0.985 -25.833  1.00  0.00     0.331 C 
ATOM      2  O   UNL     1      -7.968  -0.973 -24.610  1.00  0.00    -0.247 OA
ENDROOT
BRANCH   1   3
ATOM      3  O   UNL     1      -9.008  -1.415 -26.606  1.00  0.00    -0.456 OA
BRANCH   3   4
ATOM      4  C   UNL     1      -9.813  -2.474 -26.047  1.00  0.00     0.211 C 
ATOM      5  C   UNL     1     -12.225  -4.198 -26.289  1.00  0.00     0.082 C 
ATOM      6  C   UNL     1     -12.195  -3.019 -25.318  1.00  0.00     0.150 C 
ATOM      7  C   UNL     1     -10.818  -4.742 -26.571  1.00  0.00     0.167 C 
ATOM      8  C   UNL     1     -11.220  -1.916 -25.764  1.00  0.00     0.184 C 
ATOM      9  C   UNL     1      -9.879  -3.635 -27.045  1.00  0.00     0.095 C 
BRANCH   6  10
ATOM     10  O   UNL     1     -11.823  -3.451 -23.999  1.00  0.00    -0.390 OA
ATOM     11  H   UNL     1     -11.167  -4.173 -24.084  1.00  0.00     0.211 HD
ENDBRANCH   6  10
BRANCH   7  12
ATOM     12  O   UNL     1     -10.307  -5.317 -25.347  1.00  0.00    -0.378 OA
ATOM     13  H   UNL     1      -9.743  -4.638 -24.918  1.00  0.00     0.212 HD
ENDBRANCH   7  12
BRANCH   7  14
ATOM     14  C   UNL     1     -10.924  -5.858 -27.623  1.00  0.00     0.335 C 
ATOM     15  O   UNL     1     -11.929  -6.133 -28.256  1.00  0.00    -0.249 OA
BRANCH  14  16
ATOM     16  O   UNL     1      -9.753  -6.532 -27.755  1.00  0.00    -0.479 OA
ATOM     17  H   UNL     1      -9.159  -6.044 -28.370  1.00  0.00     0.296 HD
ENDBRANCH  14  16
ENDBRANCH   7  14
BRANCH   8  18
ATOM     18  O   UNL     1     -11.145  -0.924 -24.730  1.00  0.00    -0.387 OA
ATOM     19  H   UNL     1     -11.506  -1.350 -23.925  1.00  0.00     0.211 HD
ENDBRANCH   8  18
ENDBRANCH   3   4
ENDBRANCH   1   3
BRANCH   1  20
ATOM     20  C   UNL     1      -6.823  -0.556 -26.639  1.00  0.00     0.094 C 
ATOM     21  C   UNL     1      -5.800  -1.358 -26.974  1.00  0.00     0.016 C 
BRANCH  21  22
ATOM     22  C   UNL     1      -4.660  -0.914 -27.786  1.00  0.00    -0.021 A 
ATOM     23  C   UNL     1      -3.670  -0.061 -27.272  1.00  0.00     0.058 A 
ATOM     24  C   UNL     1      -4.533  -1.405 -29.095  1.00  0.00     0.012 A 
ATOM     25  C   UNL     1      -2.593   0.302 -28.075  1.00  0.00     0.157 A 
ATOM     26  C   UNL     1      -3.449  -1.033 -29.895  1.00  0.00     0.051 A 
ATOM     27  C   UNL     1      -2.488  -0.179 -29.376  1.00  0.00     0.157 A 
BRANCH  25  28
ATOM     28  O   UNL     1      -1.601   1.130 -27.624  1.00  0.00    -0.504 OA
ATOM     29  H   UNL     1      -0.904   1.169 -28.300  1.00  0.00     0.293 HD
ENDBRANCH  25  28
BRANCH  27  30
ATOM     30  O   UNL     1      -1.427   0.182 -30.155  1.00  0.00    -0.504 OA
ATOM     31  H   UNL     1      -1.786   0.200 -31.065  1.00  0.00     0.293 HD
ENDBRANCH  27  30
ENDBRANCH  21  22
ENDBRANCH   1  20
TORSDOF 11
ENDMDL
MODEL 10
REMARK VINA RESULT:      -7.7      3.729      6.751
REMARK SMILES O=C(/C=C/c1ccc(O)c(O)c1)O[C@@H]1C[C@](O)(C(=O)O)C[C@@H](O)[C@H]1O
REMARK SMILES IDX 2 1 1 2 13 3 14 4 21 5 22 6 16 7 24 8 15 9 23 10 17 12 18 14
REMARK SMILES IDX 19 15 20 16 25 18 3 20 4 21 5 22 12 23 6 24 10 25 7 26 8 27
REMARK SMILES IDX 11 28 9 30
REMARK H PARENT 23 11 17 13 20 17 25 19 11 29 9 31
ROOT
ATOM      1  C   UNL     1      -8.293  -0.707 -31.398  1.00  0.00     0.331 C 
ATOM      2  O   UNL     1      -8.255  -0.656 -32.620  1.00  0.00    -0.247 OA
ENDROOT
BRANCH   1   3
ATOM      3  O   UNL     1      -9.379  -1.015 -30.653  1.00  0.00    -0.456 OA
BRANCH   3   4
ATOM      4  C   UNL     1      -9.137  -1.875 -29.519  1.00  0.00     0.211 C 
ATOM      5  C   UNL     1     -10.260  -3.722 -27.476  1.00  0.00     0.082 C 
ATOM      6  C   UNL     1      -9.876  -2.288 -27.115  1.00  0.00     0.150 C 
ATOM      7  C   UNL     1      -9.455  -4.244 -28.674  1.00  0.00     0.167 C 
ATOM      8  C   UNL     1      -9.945  -1.339 -28.323  1.00  0.00     0.184 C 
ATOM      9  C   UNL     1      -9.568  -3.303 -29.872  1.00  0.00     0.095 C 
BRANCH   6  10
ATOM     10  O   UNL     1      -8.548  -2.236 -26.567  1.00  0.00    -0.390 OA
ATOM     11  H   UNL     1      -8.280  -3.145 -26.320  1.00  0.00     0.211 HD
ENDBRANCH   6  10
BRANCH   7  12
ATOM     12  O   UNL     1      -8.071  -4.349 -28.272  1.00  0.00    -0.378 OA
ATOM     13  H   UNL     1      -7.644  -3.488 -28.467  1.00  0.00     0.212 HD
ENDBRANCH   7  12
BRANCH   7  14
ATOM     14  C   UNL     1      -9.964  -5.650 -29.032  1.00  0.00     0.335 C 
ATOM     15  O   UNL     1     -10.489  -5.958 -30.089  1.00  0.00    -0.249 OA
BRANCH  14  16
ATOM     16  O   UNL     1      -9.778  -6.524 -28.011  1.00  0.00    -0.479 OA
ATOM     17  H   UNL     1     -10.245  -7.368 -28.209  1.00  0.00     0.296 HD
ENDBRANCH  14  16
ENDBRANCH   7  14
BRANCH   8  18
ATOM     18  O   UNL     1      -9.432  -0.059 -27.931  1.00  0.00    -0.387 OA
ATOM     19  H   UNL     1      -8.507  -0.031 -28.254  1.00  0.00     0.211 HD
ENDBRANCH   8  18
ENDBRANCH   3   4
ENDBRANCH   1   3
BRANCH   1  20
ATOM     20  C   UNL     1      -7.119  -0.383 -30.562  1.00  0.00     0.094 C 
ATOM     21  C   UNL     1      -5.878  -0.208 -31.041  1.00  0.00     0.016 C 
BRANCH  21  22
ATOM     22  C   UNL     1      -4.726   0.126 -30.192  1.00  0.00    -0.021 A 
ATOM     23  C   UNL     1      -4.467   1.443 -29.778  1.00  0.00     0.058 A 
ATOM     24  C   UNL     1      -3.899  -0.913 -29.739  1.00  0.00     0.012 A 
ATOM     25  C   UNL     1      -3.380   1.698 -28.947  1.00  0.00     0.157 A 
ATOM     26  C   UNL     1      -2.808  -0.647 -28.906  1.00  0.00     0.051 A 
ATOM     27  C   UNL     1      -2.559   0.661 -28.519  1.00  0.00     0.157 A 
BRANCH  25  28
ATOM     28  O   UNL     1      -3.082   2.962 -28.515  1.00  0.00    -0.504 OA
ATOM     29  H   UNL     1      -3.089   3.557 -29.283  1.00  0.00     0.293 HD
ENDBRANCH  25  28
BRANCH  27  30
ATOM     30  O   UNL     1      -1.497   0.922 -27.703  1.00  0.00    -0.504 OA
ATOM     31  H   UNL     1      -1.872   1.457 -26.975  1.00  0.00     0.293 HD
ENDBRANCH  27  30
ENDBRANCH  21  22
ENDBRANCH   1  20
TORSDOF 11
ENDMDL
