MODEL 1
REMARK VINA RESULT:      -6.0      0.000      0.000
REMARK SMILES C=C(C)[C@H]1CC=C(C)CC1
REMARK SMILES IDX 8 1 7 2 6 3 5 4 4 5 10 6 9 7 2 8 1 9 3 10
REMARK H PARENT
ROOT
ATOM      1  C   UNL     1       9.346  -1.021 -15.552  1.00  0.00     0.039 C 
ATOM      2  C   UNL     1       8.329  -0.940 -16.654  1.00  0.00    -0.077 C 
ATOM      3  C   UNL     1       7.013  -0.822 -16.406  1.00  0.00    -0.027 C 
ATOM      4  C   UNL     1       5.962  -0.788 -17.483  1.00  0.00     0.035 C 
ATOM      5  C   UNL     1       6.465  -1.190 -18.892  1.00  0.00     0.018 C 
ATOM      6  C   UNL     1       7.854  -0.570 -19.122  1.00  0.00     0.013 C 
ATOM      7  C   UNL     1       8.871  -1.004 -18.061  1.00  0.00     0.031 C 
ENDROOT
BRANCH   5   8
ATOM      8  C   UNL     1       6.446  -2.688 -19.220  1.00  0.00    -0.077 C 
ATOM      9  C   UNL     1       5.982  -3.650 -18.402  1.00  0.00     0.008 C 
ATOM     10  C   UNL     1       6.967  -3.057 -20.588  1.00  0.00     0.039 C 
ENDBRANCH   5   8
TORSDOF 1
ENDMDL
MODEL 2
REMARK VINA RESULT:      -5.4     14.413     16.460
REMARK SMILES C=C(C)[C@H]1CC=C(C)CC1
REMARK SMILES IDX 8 1 7 2 6 3 5 4 4 5 10 6 9 7 2 8 1 9 3 10
REMARK H PARENT
ROOT
ATOM      1  C   UNL     1      -6.711  -0.549 -31.114  1.00  0.00     0.039 C 
ATOM      2  C   UNL     1      -5.387  -0.782 -30.444  1.00  0.00    -0.077 C 
ATOM      3  C   UNL     1      -5.175  -1.825 -29.622  1.00  0.00    -0.027 C 
ATOM      4  C   UNL     1      -3.877  -2.063 -28.896  1.00  0.00     0.035 C 
ATOM      5  C   UNL     1      -2.891  -0.868 -28.925  1.00  0.00     0.018 C 
ATOM      6  C   UNL     1      -2.907  -0.242 -30.330  1.00  0.00     0.013 C 
ATOM      7  C   UNL     1      -4.306   0.227 -30.745  1.00  0.00     0.031 C 
ENDROOT
BRANCH   5   8
ATOM      8  C   UNL     1      -3.065   0.187 -27.826  1.00  0.00    -0.077 C 
ATOM      9  C   UNL     1      -3.999   0.144 -26.859  1.00  0.00     0.008 C 
ATOM     10  C   UNL     1      -2.070   1.321 -27.854  1.00  0.00     0.039 C 
ENDBRANCH   5   8
TORSDOF 1
ENDMDL
MODEL 3
REMARK VINA RESULT:      -5.4     14.366     16.439
REMARK SMILES C=C(C)[C@H]1CC=C(C)CC1
REMARK SMILES IDX 8 1 7 2 6 3 5 4 4 5 10 6 9 7 2 8 1 9 3 10
REMARK H PARENT
ROOT
ATOM      1  C   UNL     1      -6.585  -0.438 -31.129  1.00  0.00     0.039 C 
ATOM      2  C   UNL     1      -5.253  -0.673 -30.476  1.00  0.00    -0.077 C 
ATOM      3  C   UNL     1      -5.035  -1.711 -29.649  1.00  0.00    -0.027 C 
ATOM      4  C   UNL     1      -3.729  -1.950 -28.939  1.00  0.00     0.035 C 
ATOM      5  C   UNL     1      -2.737  -0.761 -28.990  1.00  0.00     0.018 C 
ATOM      6  C   UNL     1      -2.770  -0.144 -30.399  1.00  0.00     0.013 C 
ATOM      7  C   UNL     1      -4.172   0.329 -30.798  1.00  0.00     0.031 C 
ENDROOT
BRANCH   5   8
ATOM      8  C   UNL     1      -2.891   0.303 -27.896  1.00  0.00    -0.077 C 
ATOM      9  C   UNL     1      -2.148   1.419 -27.798  1.00  0.00     0.008 C 
ATOM     10  C   UNL     1      -3.994   0.049 -26.898  1.00  0.00     0.039 C 
ENDBRANCH   5   8
TORSDOF 1
ENDMDL
MODEL 4
REMARK VINA RESULT:      -5.3      1.506      4.092
REMARK SMILES C=C(C)[C@H]1CC=C(C)CC1
REMARK SMILES IDX 8 1 7 2 6 3 5 4 4 5 10 6 9 7 2 8 1 9 3 10
REMARK H PARENT
ROOT
ATOM      1  C   UNL     1       6.333  -1.528 -20.271  1.00  0.00     0.039 C 
ATOM      2  C   UNL     1       6.988  -1.324 -18.935  1.00  0.00    -0.077 C 
ATOM      3  C   UNL     1       6.341  -1.552 -17.779  1.00  0.00    -0.027 C 
ATOM      4  C   UNL     1       6.950  -1.312 -16.423  1.00  0.00     0.035 C 
ATOM      5  C   UNL     1       8.273  -0.508 -16.440  1.00  0.00     0.018 C 
ATOM      6  C   UNL     1       9.135  -0.990 -17.619  1.00  0.00     0.013 C 
ATOM      7  C   UNL     1       8.419  -0.844 -18.966  1.00  0.00     0.031 C 
ENDROOT
BRANCH   5   8
ATOM      8  C   UNL     1       8.143   1.020 -16.414  1.00  0.00    -0.077 C 
ATOM      9  C   UNL     1       7.093   1.711 -16.892  1.00  0.00     0.008 C 
ATOM     10  C   UNL     1       9.289   1.757 -15.765  1.00  0.00     0.039 C 
ENDBRANCH   5   8
TORSDOF 1
ENDMDL
MODEL 5
REMARK VINA RESULT:      -5.3     14.139     15.544
REMARK SMILES C=C(C)[C@H]1CC=C(C)CC1
REMARK SMILES IDX 8 1 7 2 6 3 5 4 4 5 10 6 9 7 2 8 1 9 3 10
REMARK H PARENT
ROOT
ATOM      1  C   UNL     1      -5.313  -1.001 -25.814  1.00  0.00     0.039 C 
ATOM      2  C   UNL     1      -4.311  -0.637 -26.871  1.00  0.00    -0.077 C 
ATOM      3  C   UNL     1      -3.475   0.407 -26.735  1.00  0.00    -0.027 C 
ATOM      4  C   UNL     1      -2.492   0.831 -27.794  1.00  0.00     0.035 C 
ATOM      5  C   UNL     1      -2.703   0.167 -29.177  1.00  0.00     0.018 C 
ATOM      6  C   UNL     1      -3.051  -1.318 -28.969  1.00  0.00     0.013 C 
ATOM      7  C   UNL     1      -4.299  -1.510 -28.102  1.00  0.00     0.031 C 
ENDROOT
BRANCH   5   8
ATOM      8  C   UNL     1      -3.693   0.859 -30.122  1.00  0.00    -0.077 C 
ATOM      9  C   UNL     1      -4.353   1.998 -29.846  1.00  0.00     0.008 C 
ATOM     10  C   UNL     1      -3.882   0.191 -31.462  1.00  0.00     0.039 C 
ENDBRANCH   5   8
TORSDOF 1
ENDMDL
MODEL 6
REMARK VINA RESULT:      -5.2     14.215     15.848
REMARK SMILES C=C(C)[C@H]1CC=C(C)CC1
REMARK SMILES IDX 8 1 7 2 6 3 5 4 4 5 10 6 9 7 2 8 1 9 3 10
REMARK H PARENT
ROOT
ATOM      1  C   UNL     1      -2.317   1.543 -27.779  1.00  0.00     0.039 C 
ATOM      2  C   UNL     1      -3.051   0.238 -27.894  1.00  0.00    -0.077 C 
ATOM      3  C   UNL     1      -2.731  -0.683 -28.820  1.00  0.00    -0.027 C 
ATOM      4  C   UNL     1      -3.475  -1.980 -28.998  1.00  0.00     0.035 C 
ATOM      5  C   UNL     1      -4.822  -2.063 -28.236  1.00  0.00     0.018 C 
ATOM      6  C   UNL     1      -4.646  -1.436 -26.842  1.00  0.00     0.013 C 
ATOM      7  C   UNL     1      -4.175   0.020 -26.911  1.00  0.00     0.031 C 
ENDROOT
BRANCH   5   8
ATOM      8  C   UNL     1      -6.052  -1.505 -28.962  1.00  0.00    -0.077 C 
ATOM      9  C   UNL     1      -6.059  -1.057 -30.230  1.00  0.00     0.008 C 
ATOM     10  C   UNL     1      -7.333  -1.512 -28.164  1.00  0.00     0.039 C 
ENDBRANCH   5   8
TORSDOF 1
ENDMDL
MODEL 7
REMARK VINA RESULT:      -5.2     14.054     15.442
REMARK SMILES C=C(C)[C@H]1CC=C(C)CC1
REMARK SMILES IDX 8 1 7 2 6 3 5 4 4 5 10 6 9 7 2 8 1 9 3 10
REMARK H PARENT
ROOT
ATOM      1  C   UNL     1      -3.409  -2.200 -30.044  1.00  0.00     0.039 C 
ATOM      2  C   UNL     1      -3.220  -1.079 -29.063  1.00  0.00    -0.077 C 
ATOM      3  C   UNL     1      -3.943  -0.989 -27.933  1.00  0.00    -0.027 C 
ATOM      4  C   UNL     1      -3.815   0.146 -26.951  1.00  0.00     0.035 C 
ATOM      5  C   UNL     1      -3.004   1.361 -27.468  1.00  0.00     0.018 C 
ATOM      6  C   UNL     1      -1.781   0.848 -28.248  1.00  0.00     0.013 C 
ATOM      7  C   UNL     1      -2.172  -0.054 -29.422  1.00  0.00     0.031 C 
ENDROOT
BRANCH   5   8
ATOM      8  C   UNL     1      -3.786   2.416 -28.259  1.00  0.00    -0.077 C 
ATOM      9  C   UNL     1      -5.026   2.247 -28.751  1.00  0.00     0.008 C 
ATOM     10  C   UNL     1      -3.082   3.738 -28.445  1.00  0.00     0.039 C 
ENDBRANCH   5   8
TORSDOF 1
ENDMDL
MODEL 8
REMARK VINA RESULT:      -5.1     14.582     16.359
REMARK SMILES C=C(C)[C@H]1CC=C(C)CC1
REMARK SMILES IDX 8 1 7 2 6 3 5 4 4 5 10 6 9 7 2 8 1 9 3 10
REMARK H PARENT
ROOT
ATOM      1  C   UNL     1      -2.176   1.286 -27.767  1.00  0.00     0.039 C 
ATOM      2  C   UNL     1      -2.837   0.192 -28.554  1.00  0.00    -0.077 C 
ATOM      3  C   UNL     1      -2.633   0.037 -29.874  1.00  0.00    -0.027 C 
ATOM      4  C   UNL     1      -3.317  -1.017 -30.705  1.00  0.00     0.035 C 
ATOM      5  C   UNL     1      -4.497  -1.732 -30.000  1.00  0.00     0.018 C 
ATOM      6  C   UNL     1      -4.112  -2.005 -28.535  1.00  0.00     0.013 C 
ATOM      7  C   UNL     1      -3.751  -0.724 -27.777  1.00  0.00     0.031 C 
ENDROOT
BRANCH   5   8
ATOM      8  C   UNL     1      -5.869  -1.056 -30.114  1.00  0.00    -0.077 C 
ATOM      9  C   UNL     1      -6.941  -1.358 -29.359  1.00  0.00     0.008 C 
ATOM     10  C   UNL     1      -5.965   0.044 -31.141  1.00  0.00     0.039 C 
ENDBRANCH   5   8
TORSDOF 1
ENDMDL
MODEL 9
REMARK VINA RESULT:      -5.1     14.513     16.215
REMARK SMILES C=C(C)[C@H]1CC=C(C)CC1
REMARK SMILES IDX 8 1 7 2 6 3 5 4 4 5 10 6 9 7 2 8 1 9 3 10
REMARK H PARENT
ROOT
ATOM      1  C   UNL     1      -4.852   1.881 -31.379  1.00  0.00     0.039 C 
ATOM      2  C   UNL     1      -4.172   0.837 -30.542  1.00  0.00    -0.077 C 
ATOM      3  C   UNL     1      -4.231  -0.472 -30.845  1.00  0.00    -0.027 C 
ATOM      4  C   UNL     1      -3.603  -1.551 -30.003  1.00  0.00     0.035 C 
ATOM      5  C   UNL     1      -3.130  -1.086 -28.603  1.00  0.00     0.018 C 
ATOM      6  C   UNL     1      -2.473   0.299 -28.732  1.00  0.00     0.013 C 
ATOM      7  C   UNL     1      -3.420   1.341 -29.335  1.00  0.00     0.031 C 
ENDROOT
BRANCH   5   8
ATOM      8  C   UNL     1      -4.178  -1.120 -27.483  1.00  0.00    -0.077 C 
ATOM      9  C   UNL     1      -4.236  -0.253 -26.457  1.00  0.00     0.008 C 
ATOM     10  C   UNL     1      -5.221  -2.204 -27.605  1.00  0.00     0.039 C 
ENDBRANCH   5   8
TORSDOF 1
ENDMDL
MODEL 10
REMARK VINA RESULT:      -5.1      0.973      4.005
REMARK SMILES C=C(C)[C@H]1CC=C(C)CC1
REMARK SMILES IDX 8 1 7 2 6 3 5 4 4 5 10 6 9 7 2 8 1 9 3 10
REMARK H PARENT
ROOT
ATOM      1  C   UNL     1       6.349  -2.975 -19.345  1.00  0.00     0.039 C 
ATOM      2  C   UNL     1       6.866  -1.787 -18.587  1.00  0.00    -0.077 C 
ATOM      3  C   UNL     1       7.726  -0.909 -19.133  1.00  0.00    -0.027 C 
ATOM      4  C   UNL     1       8.304   0.265 -18.387  1.00  0.00     0.035 C 
ATOM      5  C   UNL     1       8.072   0.237 -16.856  1.00  0.00     0.018 C 
ATOM      6  C   UNL     1       6.640  -0.250 -16.576  1.00  0.00     0.013 C 
ATOM      7  C   UNL     1       6.368  -1.636 -17.170  1.00  0.00     0.031 C 
ENDROOT
BRANCH   5   8
ATOM      8  C   UNL     1       9.109  -0.528 -16.023  1.00  0.00    -0.077 C 
ATOM      9  C   UNL     1       8.884  -1.699 -15.401  1.00  0.00     0.008 C 
ATOM     10  C   UNL     1      10.477   0.105 -15.955  1.00  0.00     0.039 C 
ENDBRANCH   5   8
TORSDOF 1
ENDMDL
