MODEL 1
REMARK VINA RESULT:      -5.3      0.000      0.000
REMARK SMILES C=CCSC[C@H](N)C(=O)O
REMARK SMILES IDX 5 1 4 2 3 3 2 4 1 5 6 6 8 7 9 8 10 9 7 11
REMARK H PARENT 10 10 7 12 7 13
ROOT
ATOM      1  C   UNL     1       0.381 -10.586 -26.684  1.00  0.00     0.100 C 
ENDROOT
BRANCH   1   2
ATOM      2  S   UNL     1      -0.873  -9.259 -26.773  1.00  0.00    -0.156 SA
BRANCH   2   3
ATOM      3  C   UNL     1      -2.022 -10.054 -27.934  1.00  0.00     0.096 C 
BRANCH   3   4
ATOM      4  C   UNL     1      -3.273  -9.235 -28.016  1.00  0.00    -0.024 C 
ATOM      5  C   UNL     1      -4.409  -9.512 -27.361  1.00  0.00     0.005 C 
ENDBRANCH   3   4
ENDBRANCH   2   3
ENDBRANCH   1   2
BRANCH   1   6
ATOM      6  C   UNL     1       0.527 -11.155 -25.260  1.00  0.00     0.172 C 
BRANCH   6   7
ATOM      7  C   UNL     1       0.810 -12.660 -25.344  1.00  0.00     0.321 C 
ATOM      8  O   UNL     1       1.290 -13.241 -26.305  1.00  0.00    -0.251 OA
BRANCH   7   9
ATOM      9  O   UNL     1       0.509 -13.299 -24.182  1.00  0.00    -0.480 OA
ATOM     10  H   UNL     1       0.047 -14.149 -24.334  1.00  0.00     0.296 HD
ENDBRANCH   7   9
ENDBRANCH   6   7
BRANCH   6  11
ATOM     11  N   UNL     1       1.590 -10.505 -24.455  1.00  0.00    -0.318 NA
ATOM     12  H   UNL     1       2.364 -10.250 -25.073  1.00  0.00     0.119 HD
ATOM     13  H   UNL     1       1.992 -11.150 -23.776  1.00  0.00     0.119 HD
ENDBRANCH   6  11
ENDBRANCH   1   6
TORSDOF 7
ENDMDL
MODEL 2
REMARK VINA RESULT:      -5.2     13.234     14.001
REMARK SMILES C=CCSC[C@H](N)C(=O)O
REMARK SMILES IDX 5 1 4 2 3 3 2 4 1 5 6 6 8 7 9 8 10 9 7 11
REMARK H PARENT 10 10 7 12 7 13
ROOT
ATOM      1  C   UNL     1       6.389  -1.323 -19.306  1.00  0.00     0.100 C 
ENDROOT
BRANCH   1   2
ATOM      2  S   UNL     1       7.015  -2.782 -20.210  1.00  0.00    -0.156 SA
BRANCH   2   3
ATOM      3  C   UNL     1       5.538  -3.134 -21.207  1.00  0.00     0.096 C 
BRANCH   3   4
ATOM      4  C   UNL     1       5.378  -2.056 -22.234  1.00  0.00    -0.024 C 
ATOM      5  C   UNL     1       4.599  -2.149 -23.320  1.00  0.00     0.005 C 
ENDBRANCH   3   4
ENDBRANCH   2   3
ENDBRANCH   1   2
BRANCH   1   6
ATOM      6  C   UNL     1       7.453  -0.717 -18.371  1.00  0.00     0.172 C 
BRANCH   6   7
ATOM      7  C   UNL     1       6.960  -0.805 -16.920  1.00  0.00     0.321 C 
ATOM      8  O   UNL     1       6.286  -1.709 -16.452  1.00  0.00    -0.251 OA
BRANCH   7   9
ATOM      9  O   UNL     1       7.405   0.236 -16.168  1.00  0.00    -0.480 OA
ATOM     10  H   UNL     1       8.332   0.475 -16.374  1.00  0.00     0.296 HD
ENDBRANCH   7   9
ENDBRANCH   6   7
BRANCH   6  11
ATOM     11  N   UNL     1       8.784  -1.362 -18.471  1.00  0.00    -0.318 NA
ATOM     12  H   UNL     1       8.762  -2.249 -17.963  1.00  0.00     0.119 HD
ATOM     13  H   UNL     1       9.504  -0.808 -18.009  1.00  0.00     0.119 HD
ENDBRANCH   6  11
ENDBRANCH   1   6
TORSDOF 7
ENDMDL
MODEL 3
REMARK VINA RESULT:      -5.1      1.845      2.291
REMARK SMILES C=CCSC[C@H](N)C(=O)O
REMARK SMILES IDX 5 1 4 2 3 3 2 4 1 5 6 6 8 7 9 8 10 9 7 11
REMARK H PARENT 10 10 7 12 7 13
ROOT
ATOM      1  C   UNL     1      -1.735 -10.323 -27.081  1.00  0.00     0.100 C 
ENDROOT
BRANCH   1   2
ATOM      2  S   UNL     1      -2.587  -8.986 -27.990  1.00  0.00    -0.156 SA
BRANCH   2   3
ATOM      3  C   UNL     1      -4.179  -9.041 -27.118  1.00  0.00     0.096 C 
BRANCH   3   4
ATOM      4  C   UNL     1      -4.630 -10.465 -27.021  1.00  0.00    -0.024 C 
ATOM      5  C   UNL     1      -5.685 -10.884 -26.308  1.00  0.00     0.005 C 
ENDBRANCH   3   4
ENDBRANCH   2   3
ENDBRANCH   1   2
BRANCH   1   6
ATOM      6  C   UNL     1      -0.435  -9.838 -26.413  1.00  0.00     0.172 C 
BRANCH   6   7
ATOM      7  C   UNL     1       0.354 -11.051 -25.902  1.00  0.00     0.321 C 
ATOM      8  O   UNL     1       0.369 -12.157 -26.417  1.00  0.00    -0.251 OA
BRANCH   7   9
ATOM      9  O   UNL     1       1.100 -10.746 -24.807  1.00  0.00    -0.480 OA
ATOM     10  H   UNL     1       1.853 -10.158 -25.020  1.00  0.00     0.296 HD
ENDBRANCH   7   9
ENDBRANCH   6   7
BRANCH   6  11
ATOM     11  N   UNL     1       0.437  -9.032 -27.301  1.00  0.00    -0.318 NA
ATOM     12  H   UNL     1       1.361  -8.948 -26.872  1.00  0.00     0.119 HD
ATOM     13  H   UNL     1       0.096  -8.076 -27.392  1.00  0.00     0.119 HD
ENDBRANCH   6  11
ENDBRANCH   1   6
TORSDOF 7
ENDMDL
MODEL 4
REMARK VINA RESULT:      -5.0     11.235     12.259
REMARK SMILES C=CCSC[C@H](N)C(=O)O
REMARK SMILES IDX 5 1 4 2 3 3 2 4 1 5 6 6 8 7 9 8 10 9 7 11
REMARK H PARENT 10 10 7 12 7 13
ROOT
ATOM      1  C   UNL     1       5.252  -1.670 -23.336  1.00  0.00     0.100 C 
ENDROOT
BRANCH   1   2
ATOM      2  S   UNL     1       4.595  -3.062 -22.350  1.00  0.00    -0.156 SA
BRANCH   2   3
ATOM      3  C   UNL     1       5.875  -3.107 -21.062  1.00  0.00     0.096 C 
BRANCH   3   4
ATOM      4  C   UNL     1       6.151  -1.708 -20.605  1.00  0.00    -0.024 C 
ATOM      5  C   UNL     1       6.805  -1.391 -19.479  1.00  0.00     0.005 C 
ENDBRANCH   3   4
ENDBRANCH   2   3
ENDBRANCH   1   2
BRANCH   1   6
ATOM      6  C   UNL     1       4.598  -1.581 -24.728  1.00  0.00     0.172 C 
BRANCH   6   7
ATOM      7  C   UNL     1       3.156  -1.079 -24.577  1.00  0.00     0.321 C 
ATOM      8  O   UNL     1       2.272  -1.635 -23.944  1.00  0.00    -0.251 OA
BRANCH   7   9
ATOM      9  O   UNL     1       2.966   0.114 -25.201  1.00  0.00    -0.480 OA
ATOM     10  H   UNL     1       3.606   0.261 -25.927  1.00  0.00     0.296 HD
ENDBRANCH   7   9
ENDBRANCH   6   7
BRANCH   6  11
ATOM     11  N   UNL     1       5.320  -0.704 -25.680  1.00  0.00    -0.318 NA
ATOM     12  H   UNL     1       6.312  -0.951 -25.673  1.00  0.00     0.119 HD
ATOM     13  H   UNL     1       5.286   0.272 -25.389  1.00  0.00     0.119 HD
ENDBRANCH   6  11
ENDBRANCH   1   6
TORSDOF 7
ENDMDL
MODEL 5
REMARK VINA RESULT:      -4.9     11.020     12.046
REMARK SMILES C=CCSC[C@H](N)C(=O)O
REMARK SMILES IDX 5 1 4 2 3 3 2 4 1 5 6 6 8 7 9 8 10 9 7 11
REMARK H PARENT 10 10 7 12 7 13
ROOT
ATOM      1  C   UNL     1       5.016  -1.489 -24.039  1.00  0.00     0.100 C 
ENDROOT
BRANCH   1   2
ATOM      2  S   UNL     1       4.073  -2.616 -22.951  1.00  0.00    -0.156 SA
BRANCH   2   3
ATOM      3  C   UNL     1       5.390  -3.004 -21.762  1.00  0.00     0.096 C 
BRANCH   3   4
ATOM      4  C   UNL     1       5.887  -1.728 -21.155  1.00  0.00    -0.024 C 
ATOM      5  C   UNL     1       6.479  -1.635 -19.957  1.00  0.00     0.005 C 
ENDBRANCH   3   4
ENDBRANCH   2   3
ENDBRANCH   1   2
BRANCH   1   6
ATOM      6  C   UNL     1       4.096  -0.659 -24.954  1.00  0.00     0.172 C 
BRANCH   6   7
ATOM      7  C   UNL     1       4.406  -0.993 -26.419  1.00  0.00     0.321 C 
ATOM      8  O   UNL     1       5.045  -0.293 -27.188  1.00  0.00    -0.251 OA
BRANCH   7   9
ATOM      9  O   UNL     1       3.922  -2.213 -26.775  1.00  0.00    -0.480 OA
ATOM     10  H   UNL     1       3.209  -2.519 -26.179  1.00  0.00     0.296 HD
ENDBRANCH   7   9
ENDBRANCH   6   7
BRANCH   6  11
ATOM     11  N   UNL     1       2.649  -0.865 -24.705  1.00  0.00    -0.318 NA
ATOM     12  H   UNL     1       2.533  -1.628 -24.034  1.00  0.00     0.119 HD
ATOM     13  H   UNL     1       2.165  -1.173 -25.547  1.00  0.00     0.119 HD
ENDBRANCH   6  11
ENDBRANCH   1   6
TORSDOF 7
ENDMDL
MODEL 6
REMARK VINA RESULT:      -4.6     11.173     11.769
REMARK SMILES C=CCSC[C@H](N)C(=O)O
REMARK SMILES IDX 5 1 4 2 3 3 2 4 1 5 6 6 8 7 9 8 10 9 7 11
REMARK H PARENT 10 10 7 12 7 13
ROOT
ATOM      1  C   UNL     1       5.226  -1.183 -24.704  1.00  0.00     0.100 C 
ENDROOT
BRANCH   1   2
ATOM      2  S   UNL     1       4.759  -0.345 -26.260  1.00  0.00    -0.156 SA
BRANCH   2   3
ATOM      3  C   UNL     1       6.373   0.378 -26.671  1.00  0.00     0.096 C 
BRANCH   3   4
ATOM      4  C   UNL     1       6.329   0.893 -28.077  1.00  0.00    -0.024 C 
ATOM      5  C   UNL     1       5.734   0.264 -29.100  1.00  0.00     0.005 C 
ENDBRANCH   3   4
ENDBRANCH   2   3
ENDBRANCH   1   2
BRANCH   1   6
ATOM      6  C   UNL     1       4.094  -2.075 -24.160  1.00  0.00     0.172 C 
BRANCH   6   7
ATOM      7  C   UNL     1       4.475  -2.577 -22.761  1.00  0.00     0.321 C 
ATOM      8  O   UNL     1       4.049  -3.589 -22.228  1.00  0.00    -0.251 OA
BRANCH   7   9
ATOM      9  O   UNL     1       5.407  -1.781 -22.172  1.00  0.00    -0.480 OA
ATOM     10  H   UNL     1       5.423  -1.884 -21.198  1.00  0.00     0.296 HD
ENDBRANCH   7   9
ENDBRANCH   6   7
BRANCH   6  11
ATOM     11  N   UNL     1       2.775  -1.402 -24.090  1.00  0.00    -0.318 NA
ATOM     12  H   UNL     1       2.251  -1.781 -23.299  1.00  0.00     0.119 HD
ATOM     13  H   UNL     1       2.206  -1.608 -24.911  1.00  0.00     0.119 HD
ENDBRANCH   6  11
ENDBRANCH   1   6
TORSDOF 7
ENDMDL
MODEL 7
REMARK VINA RESULT:      -4.4     15.318     16.116
REMARK SMILES C=CCSC[C@H](N)C(=O)O
REMARK SMILES IDX 5 1 4 2 3 3 2 4 1 5 6 6 8 7 9 8 10 9 7 11
REMARK H PARENT 10 10 7 12 7 13
ROOT
ATOM      1  C   UNL     1       7.999  -0.560 -17.648  1.00  0.00     0.100 C 
ENDROOT
BRANCH   1   2
ATOM      2  S   UNL     1       6.405  -1.299 -18.155  1.00  0.00    -0.156 SA
BRANCH   2   3
ATOM      3  C   UNL     1       6.947  -2.065 -19.710  1.00  0.00     0.096 C 
BRANCH   3   4
ATOM      4  C   UNL     1       5.988  -1.686 -20.796  1.00  0.00    -0.024 C 
ATOM      5  C   UNL     1       5.513  -2.532 -21.721  1.00  0.00     0.005 C 
ENDBRANCH   3   4
ENDBRANCH   2   3
ENDBRANCH   1   2
BRANCH   1   6
ATOM      6  C   UNL     1       7.843   0.396 -16.450  1.00  0.00     0.172 C 
BRANCH   6   7
ATOM      7  C   UNL     1       9.186   0.512 -15.718  1.00  0.00     0.321 C 
ATOM      8  O   UNL     1      10.262   0.118 -16.140  1.00  0.00    -0.251 OA
BRANCH   7   9
ATOM      9  O   UNL     1       9.063   1.164 -14.532  1.00  0.00    -0.480 OA
ATOM     10  H   UNL     1       9.694   0.835 -13.859  1.00  0.00     0.296 HD
ENDBRANCH   7   9
ENDBRANCH   6   7
BRANCH   6  11
ATOM     11  N   UNL     1       7.372   1.753 -16.817  1.00  0.00    -0.318 NA
ATOM     12  H   UNL     1       6.462   1.676 -17.275  1.00  0.00     0.119 HD
ATOM     13  H   UNL     1       7.983   2.187 -17.507  1.00  0.00     0.119 HD
ENDBRANCH   6  11
ENDBRANCH   1   6
TORSDOF 7
ENDMDL
MODEL 8
REMARK VINA RESULT:      -4.4     15.157     16.018
REMARK SMILES C=CCSC[C@H](N)C(=O)O
REMARK SMILES IDX 5 1 4 2 3 3 2 4 1 5 6 6 8 7 9 8 10 9 7 11
REMARK H PARENT 10 10 7 12 7 13
ROOT
ATOM      1  C   UNL     1      -9.136  -1.068 -31.695  1.00  0.00     0.100 C 
ENDROOT
BRANCH   1   2
ATOM      2  S   UNL     1      -7.445  -0.850 -31.038  1.00  0.00    -0.156 SA
BRANCH   2   3
ATOM      3  C   UNL     1      -7.326   0.956 -31.197  1.00  0.00     0.096 C 
BRANCH   3   4
ATOM      4  C   UNL     1      -6.586   1.284 -32.456  1.00  0.00    -0.024 C 
ATOM      5  C   UNL     1      -7.130   1.281 -33.682  1.00  0.00     0.005 C 
ENDBRANCH   3   4
ENDBRANCH   2   3
ENDBRANCH   1   2
BRANCH   1   6
ATOM      6  C   UNL     1      -9.995   0.199 -31.526  1.00  0.00     0.172 C 
BRANCH   6   7
ATOM      7  C   UNL     1     -10.618   0.571 -32.878  1.00  0.00     0.321 C 
ATOM      8  O   UNL     1     -10.904  -0.213 -33.769  1.00  0.00    -0.251 OA
BRANCH   7   9
ATOM      9  O   UNL     1     -10.876   1.903 -32.969  1.00  0.00    -0.480 OA
ATOM     10  H   UNL     1     -11.553   2.196 -32.325  1.00  0.00     0.296 HD
ENDBRANCH   7   9
ENDBRANCH   6   7
BRANCH   6  11
ATOM     11  N   UNL     1     -11.072   0.069 -30.515  1.00  0.00    -0.318 NA
ATOM     12  H   UNL     1     -10.926  -0.792 -29.984  1.00  0.00     0.119 HD
ATOM     13  H   UNL     1     -11.986  -0.038 -30.953  1.00  0.00     0.119 HD
ENDBRANCH   6  11
ENDBRANCH   1   6
TORSDOF 7
ENDMDL
MODEL 9
REMARK VINA RESULT:      -4.4     14.572     15.433
REMARK SMILES C=CCSC[C@H](N)C(=O)O
REMARK SMILES IDX 5 1 4 2 3 3 2 4 1 5 6 6 8 7 9 8 10 9 7 11
REMARK H PARENT 10 10 7 12 7 13
ROOT
ATOM      1  C   UNL     1       6.723  -1.259 -17.416  1.00  0.00     0.100 C 
ENDROOT
BRANCH   1   2
ATOM      2  S   UNL     1       6.684  -1.132 -19.240  1.00  0.00    -0.156 SA
BRANCH   2   3
ATOM      3  C   UNL     1       6.672  -2.906 -19.632  1.00  0.00     0.096 C 
BRANCH   3   4
ATOM      4  C   UNL     1       6.001  -3.105 -20.955  1.00  0.00    -0.024 C 
ATOM      5  C   UNL     1       5.596  -2.112 -21.761  1.00  0.00     0.005 C 
ENDBRANCH   3   4
ENDBRANCH   2   3
ENDBRANCH   1   2
BRANCH   1   6
ATOM      6  C   UNL     1       8.097  -0.877 -16.835  1.00  0.00     0.172 C 
BRANCH   6   7
ATOM      7  C   UNL     1       8.059   0.583 -16.367  1.00  0.00     0.321 C 
ATOM      8  O   UNL     1       7.439   1.487 -16.905  1.00  0.00    -0.251 OA
BRANCH   7   9
ATOM      9  O   UNL     1       8.771   0.769 -15.223  1.00  0.00    -0.480 OA
ATOM     10  H   UNL     1       9.149  -0.067 -14.880  1.00  0.00     0.296 HD
ENDBRANCH   7   9
ENDBRANCH   6   7
BRANCH   6  11
ATOM     11  N   UNL     1       8.537  -1.736 -15.709  1.00  0.00    -0.318 NA
ATOM     12  H   UNL     1       7.875  -2.507 -15.602  1.00  0.00     0.119 HD
ATOM     13  H   UNL     1       8.509  -1.234 -14.823  1.00  0.00     0.119 HD
ENDBRANCH   6  11
ENDBRANCH   1   6
TORSDOF 7
ENDMDL
MODEL 10
REMARK VINA RESULT:      -4.3     11.836     13.005
REMARK SMILES C=CCSC[C@H](N)C(=O)O
REMARK SMILES IDX 5 1 4 2 3 3 2 4 1 5 6 6 8 7 9 8 10 9 7 11
REMARK H PARENT 10 10 7 12 7 13
ROOT
ATOM      1  C   UNL     1      -5.249   1.065 -29.592  1.00  0.00     0.100 C 
ENDROOT
BRANCH   1   2
ATOM      2  S   UNL     1      -5.629   0.007 -28.151  1.00  0.00    -0.156 SA
BRANCH   2   3
ATOM      3  C   UNL     1      -3.941  -0.546 -27.771  1.00  0.00     0.096 C 
BRANCH   3   4
ATOM      4  C   UNL     1      -3.116   0.644 -27.391  1.00  0.00    -0.024 C 
ATOM      5  C   UNL     1      -1.953   0.980 -27.968  1.00  0.00     0.005 C 
ENDBRANCH   3   4
ENDBRANCH   2   3
ENDBRANCH   1   2
BRANCH   1   6
ATOM      6  C   UNL     1      -5.323   0.289 -30.921  1.00  0.00     0.172 C 
BRANCH   6   7
ATOM      7  C   UNL     1      -3.907   0.112 -31.482  1.00  0.00     0.321 C 
ATOM      8  O   UNL     1      -3.205  -0.877 -31.341  1.00  0.00    -0.251 OA
BRANCH   7   9
ATOM      9  O   UNL     1      -3.516   1.184 -32.222  1.00  0.00    -0.480 OA
ATOM     10  H   UNL     1      -3.119   1.890 -31.673  1.00  0.00     0.296 HD
ENDBRANCH   7   9
ENDBRANCH   6   7
BRANCH   6  11
ATOM     11  N   UNL     1      -5.971  -1.040 -30.809  1.00  0.00    -0.318 NA
ATOM     12  H   UNL     1      -6.259  -1.188 -29.839  1.00  0.00     0.119 HD
ATOM     13  H   UNL     1      -5.316  -1.793 -31.012  1.00  0.00     0.119 HD
ENDBRANCH   6  11
ENDBRANCH   1   6
TORSDOF 7
ENDMDL
