MODEL 1
REMARK VINA RESULT:      -5.3      0.000      0.000
REMARK SMILES C=CCSC[C@H](N)C(=O)O
REMARK SMILES IDX 5 1 4 2 3 3 2 4 1 5 6 6 8 7 9 8 10 9 7 11
REMARK H PARENT 10 10 7 12 7 13
ROOT
ATOM      1  C   UNL     1       0.333  -9.947 -26.648  1.00  0.00     0.100 C 
ENDROOT
BRANCH   1   2
ATOM      2  S   UNL     1      -1.209  -8.962 -26.656  1.00  0.00    -0.156 SA
BRANCH   2   3
ATOM      3  C   UNL     1      -2.095  -9.867 -27.959  1.00  0.00     0.096 C 
BRANCH   3   4
ATOM      4  C   UNL     1      -3.468  -9.289 -28.103  1.00  0.00    -0.024 C 
ATOM      5  C   UNL     1      -4.488  -9.543 -27.272  1.00  0.00     0.005 C 
ENDBRANCH   3   4
ENDBRANCH   2   3
ENDBRANCH   1   2
BRANCH   1   6
ATOM      6  C   UNL     1       0.258 -11.097 -25.634  1.00  0.00     0.172 C 
BRANCH   6   7
ATOM      7  C   UNL     1       0.344 -12.436 -26.377  1.00  0.00     0.321 C 
ATOM      8  O   UNL     1      -0.486 -12.866 -27.161  1.00  0.00    -0.251 OA
BRANCH   7   9
ATOM      9  O   UNL     1       1.475 -13.111 -26.037  1.00  0.00    -0.480 OA
ATOM     10  H   UNL     1       2.146 -12.417 -25.812  1.00  0.00     0.296 HD
ENDBRANCH   7   9
ENDBRANCH   6   7
BRANCH   6  11
ATOM     11  N   UNL     1       1.348 -11.064 -24.602  1.00  0.00    -0.318 NA
ATOM     12  H   UNL     1       2.176 -10.687 -25.083  1.00  0.00     0.119 HD
ATOM     13  H   UNL     1       1.630 -12.033 -24.414  1.00  0.00     0.119 HD
ENDBRANCH   6  11
ENDBRANCH   1   6
TORSDOF 7
ENDMDL
MODEL 2
REMARK VINA RESULT:      -5.1      1.743      2.110
REMARK SMILES C=CCSC[C@H](N)C(=O)O
REMARK SMILES IDX 5 1 4 2 3 3 2 4 1 5 6 6 8 7 9 8 10 9 7 11
REMARK H PARENT 10 10 7 12 7 13
ROOT
ATOM      1  C   UNL     1      -1.574 -10.276 -27.078  1.00  0.00     0.100 C 
ENDROOT
BRANCH   1   2
ATOM      2  S   UNL     1      -2.629  -8.836 -27.476  1.00  0.00    -0.156 SA
BRANCH   2   3
ATOM      3  C   UNL     1      -4.129  -9.735 -27.971  1.00  0.00     0.096 C 
BRANCH   3   4
ATOM      4  C   UNL     1      -5.137  -9.640 -26.868  1.00  0.00    -0.024 C 
ATOM      5  C   UNL     1      -5.684 -10.694 -26.248  1.00  0.00     0.005 C 
ENDBRANCH   3   4
ENDBRANCH   2   3
ENDBRANCH   1   2
BRANCH   1   6
ATOM      6  C   UNL     1      -0.259  -9.842 -26.415  1.00  0.00     0.172 C 
BRANCH   6   7
ATOM      7  C   UNL     1       0.464 -11.078 -25.864  1.00  0.00     0.321 C 
ATOM      8  O   UNL     1       0.423 -12.197 -26.348  1.00  0.00    -0.251 OA
BRANCH   7   9
ATOM      9  O   UNL     1       1.161 -10.774 -24.736  1.00  0.00    -0.480 OA
ATOM     10  H   UNL     1       1.973 -11.342 -24.760  1.00  0.00     0.296 HD
ENDBRANCH   7   9
ENDBRANCH   6   7
BRANCH   6  11
ATOM     11  N   UNL     1       0.678  -9.126 -27.344  1.00  0.00    -0.318 NA
ATOM     12  H   UNL     1       1.605  -9.542 -27.179  1.00  0.00     0.119 HD
ATOM     13  H   UNL     1       0.804  -8.171 -26.987  1.00  0.00     0.119 HD
ENDBRANCH   6  11
ENDBRANCH   1   6
TORSDOF 7
ENDMDL
MODEL 3
REMARK VINA RESULT:      -5.0      3.168      4.776
REMARK SMILES C=CCSC[C@H](N)C(=O)O
REMARK SMILES IDX 5 1 4 2 3 3 2 4 1 5 6 6 8 7 9 8 10 9 7 11
REMARK H PARENT 10 10 7 12 7 13
ROOT
ATOM      1  C   UNL     1      -1.246  -9.404 -26.561  1.00  0.00     0.100 C 
ENDROOT
BRANCH   1   2
ATOM      2  S   UNL     1       0.548  -9.737 -26.690  1.00  0.00    -0.156 SA
BRANCH   2   3
ATOM      3  C   UNL     1       0.741 -10.736 -25.185  1.00  0.00     0.096 C 
BRANCH   3   4
ATOM      4  C   UNL     1       0.745 -12.185 -25.562  1.00  0.00    -0.024 C 
ATOM      5  C   UNL     1       0.778 -13.197 -24.685  1.00  0.00     0.005 C 
ENDBRANCH   3   4
ENDBRANCH   2   3
ENDBRANCH   1   2
BRANCH   1   6
ATOM      6  C   UNL     1      -2.066 -10.433 -27.350  1.00  0.00     0.172 C 
BRANCH   6   7
ATOM      7  C   UNL     1      -3.210  -9.719 -28.082  1.00  0.00     0.321 C 
ATOM      8  O   UNL     1      -3.084  -8.761 -28.827  1.00  0.00    -0.251 OA
BRANCH   7   9
ATOM      9  O   UNL     1      -4.410 -10.283 -27.782  1.00  0.00    -0.480 OA
ATOM     10  H   UNL     1      -5.059  -9.892 -28.422  1.00  0.00     0.296 HD
ENDBRANCH   7   9
ENDBRANCH   6   7
BRANCH   6  11
ATOM     11  N   UNL     1      -1.264 -11.194 -28.366  1.00  0.00    -0.318 NA
ATOM     12  H   UNL     1      -1.931 -11.821 -28.835  1.00  0.00     0.119 HD
ATOM     13  H   UNL     1      -0.664 -11.856 -27.859  1.00  0.00     0.119 HD
ENDBRANCH   6  11
ENDBRANCH   1   6
TORSDOF 7
ENDMDL
MODEL 4
REMARK VINA RESULT:      -4.7      3.916      5.313
REMARK SMILES C=CCSC[C@H](N)C(=O)O
REMARK SMILES IDX 5 1 4 2 3 3 2 4 1 5 6 6 8 7 9 8 10 9 7 11
REMARK H PARENT 10 10 7 12 7 13
ROOT
ATOM      1  C   UNL     1      -3.471 -10.533 -27.306  1.00  0.00     0.100 C 
ENDROOT
BRANCH   1   2
ATOM      2  S   UNL     1      -2.301  -9.257 -27.896  1.00  0.00    -0.156 SA
BRANCH   2   3
ATOM      3  C   UNL     1      -1.270  -9.133 -26.404  1.00  0.00     0.096 C 
BRANCH   3   4
ATOM      4  C   UNL     1      -0.136 -10.104 -26.518  1.00  0.00    -0.024 C 
ATOM      5  C   UNL     1       0.526 -10.622 -25.474  1.00  0.00     0.005 C 
ENDBRANCH   3   4
ENDBRANCH   2   3
ENDBRANCH   1   2
BRANCH   1   6
ATOM      6  C   UNL     1      -4.894  -9.971 -27.173  1.00  0.00     0.172 C 
BRANCH   6   7
ATOM      7  C   UNL     1      -5.716 -10.882 -26.252  1.00  0.00     0.321 C 
ATOM      8  O   UNL     1      -6.073 -12.018 -26.516  1.00  0.00    -0.251 OA
BRANCH   7   9
ATOM      9  O   UNL     1      -6.021 -10.251 -25.087  1.00  0.00    -0.480 OA
ATOM     10  H   UNL     1      -6.987 -10.419 -24.935  1.00  0.00     0.296 HD
ENDBRANCH   7   9
ENDBRANCH   6   7
BRANCH   6  11
ATOM     11  N   UNL     1      -4.942  -8.577 -26.616  1.00  0.00    -0.318 NA
ATOM     12  H   UNL     1      -4.287  -8.571 -25.823  1.00  0.00     0.119 HD
ATOM     13  H   UNL     1      -5.849  -8.459 -26.149  1.00  0.00     0.119 HD
ENDBRANCH   6  11
ENDBRANCH   1   6
TORSDOF 7
ENDMDL
MODEL 5
REMARK VINA RESULT:      -4.6     14.929     15.918
REMARK SMILES C=CCSC[C@H](N)C(=O)O
REMARK SMILES IDX 5 1 4 2 3 3 2 4 1 5 6 6 8 7 9 8 10 9 7 11
REMARK H PARENT 10 10 7 12 7 13
ROOT
ATOM      1  C   UNL     1       8.148  -0.557 -18.583  1.00  0.00     0.100 C 
ENDROOT
BRANCH   1   2
ATOM      2  S   UNL     1       6.559  -1.457 -18.480  1.00  0.00    -0.156 SA
BRANCH   2   3
ATOM      3  C   UNL     1       6.731  -2.470 -19.979  1.00  0.00     0.096 C 
BRANCH   3   4
ATOM      4  C   UNL     1       5.941  -1.838 -21.083  1.00  0.00    -0.024 C 
ATOM      5  C   UNL     1       5.256  -2.521 -22.012  1.00  0.00     0.005 C 
ENDBRANCH   3   4
ENDBRANCH   2   3
ENDBRANCH   1   2
BRANCH   1   6
ATOM      6  C   UNL     1       8.909  -0.609 -17.251  1.00  0.00     0.172 C 
BRANCH   6   7
ATOM      7  C   UNL     1       8.921   0.788 -16.617  1.00  0.00     0.321 C 
ATOM      8  O   UNL     1       9.702   1.171 -15.762  1.00  0.00    -0.251 OA
BRANCH   7   9
ATOM      9  O   UNL     1       7.923   1.562 -17.122  1.00  0.00    -0.480 OA
ATOM     10  H   UNL     1       7.292   0.935 -17.561  1.00  0.00     0.296 HD
ENDBRANCH   7   9
ENDBRANCH   6   7
BRANCH   6  11
ATOM     11  N   UNL     1       8.322  -1.569 -16.257  1.00  0.00    -0.318 NA
ATOM     12  H   UNL     1       8.886  -2.426 -16.330  1.00  0.00     0.119 HD
ATOM     13  H   UNL     1       7.412  -1.877 -16.620  1.00  0.00     0.119 HD
ENDBRANCH   6  11
ENDBRANCH   1   6
TORSDOF 7
ENDMDL
MODEL 6
REMARK VINA RESULT:      -4.5     12.984     13.911
REMARK SMILES C=CCSC[C@H](N)C(=O)O
REMARK SMILES IDX 5 1 4 2 3 3 2 4 1 5 6 6 8 7 9 8 10 9 7 11
REMARK H PARENT 10 10 7 12 7 13
ROOT
ATOM      1  C   UNL     1       6.600  -2.233 -19.324  1.00  0.00     0.100 C 
ENDROOT
BRANCH   1   2
ATOM      2  S   UNL     1       6.133  -1.657 -20.996  1.00  0.00    -0.156 SA
BRANCH   2   3
ATOM      3  C   UNL     1       5.127  -3.085 -21.497  1.00  0.00     0.096 C 
BRANCH   3   4
ATOM      4  C   UNL     1       4.476  -2.782 -22.811  1.00  0.00    -0.024 C 
ATOM      5  C   UNL     1       4.907  -1.851 -23.674  1.00  0.00     0.005 C 
ENDBRANCH   3   4
ENDBRANCH   2   3
ENDBRANCH   1   2
BRANCH   1   6
ATOM      6  C   UNL     1       7.229  -1.104 -18.497  1.00  0.00     0.172 C 
BRANCH   6   7
ATOM      7  C   UNL     1       6.661  -1.141 -17.072  1.00  0.00     0.321 C 
ATOM      8  O   UNL     1       5.974  -2.035 -16.606  1.00  0.00    -0.251 OA
BRANCH   7   9
ATOM      9  O   UNL     1       7.010  -0.024 -16.378  1.00  0.00    -0.480 OA
ATOM     10  H   UNL     1       7.879  -0.234 -15.949  1.00  0.00     0.296 HD
ENDBRANCH   7   9
ENDBRANCH   6   7
BRANCH   6  11
ATOM     11  N   UNL     1       8.726  -1.183 -18.406  1.00  0.00    -0.318 NA
ATOM     12  H   UNL     1       8.958  -0.947 -17.432  1.00  0.00     0.119 HD
ATOM     13  H   UNL     1       9.113  -0.383 -18.921  1.00  0.00     0.119 HD
ENDBRANCH   6  11
ENDBRANCH   1   6
TORSDOF 7
ENDMDL
MODEL 7
REMARK VINA RESULT:      -4.4     14.756     15.616
REMARK SMILES C=CCSC[C@H](N)C(=O)O
REMARK SMILES IDX 5 1 4 2 3 3 2 4 1 5 6 6 8 7 9 8 10 9 7 11
REMARK H PARENT 10 10 7 12 7 13
ROOT
ATOM      1  C   UNL     1      -9.171  -1.103 -31.872  1.00  0.00     0.100 C 
ENDROOT
BRANCH   1   2
ATOM      2  S   UNL     1      -7.492  -0.958 -31.158  1.00  0.00    -0.156 SA
BRANCH   2   3
ATOM      3  C   UNL     1      -7.370   0.854 -31.135  1.00  0.00     0.096 C 
BRANCH   3   4
ATOM      4  C   UNL     1      -6.566   1.301 -32.316  1.00  0.00    -0.024 C 
ATOM      5  C   UNL     1      -7.043   1.401 -33.564  1.00  0.00     0.005 C 
ENDBRANCH   3   4
ENDBRANCH   2   3
ENDBRANCH   1   2
BRANCH   1   6
ATOM      6  C   UNL     1      -9.976   0.189 -31.678  1.00  0.00     0.172 C 
BRANCH   6   7
ATOM      7  C   UNL     1     -10.609   0.598 -33.015  1.00  0.00     0.321 C 
ATOM      8  O   UNL     1     -10.784  -0.140 -33.970  1.00  0.00    -0.251 OA
BRANCH   7   9
ATOM      9  O   UNL     1     -10.943   1.916 -33.014  1.00  0.00    -0.480 OA
ATOM     10  H   UNL     1     -11.177   2.134 -32.075  1.00  0.00     0.296 HD
ENDBRANCH   7   9
ENDBRANCH   6   7
BRANCH   6  11
ATOM     11  N   UNL     1     -11.072   0.071 -30.659  1.00  0.00    -0.318 NA
ATOM     12  H   UNL     1     -10.668  -0.460 -29.876  1.00  0.00     0.119 HD
ATOM     13  H   UNL     1     -11.771  -0.585 -31.027  1.00  0.00     0.119 HD
ENDBRANCH   6  11
ENDBRANCH   1   6
TORSDOF 7
ENDMDL
MODEL 8
REMARK VINA RESULT:      -4.3      2.858      3.615
REMARK SMILES C=CCSC[C@H](N)C(=O)O
REMARK SMILES IDX 5 1 4 2 3 3 2 4 1 5 6 6 8 7 9 8 10 9 7 11
REMARK H PARENT 10 10 7 12 7 13
ROOT
ATOM      1  C   UNL     1      -2.798 -10.424 -27.148  1.00  0.00     0.100 C 
ENDROOT
BRANCH   1   2
ATOM      2  S   UNL     1      -4.067  -9.337 -27.892  1.00  0.00    -0.156 SA
BRANCH   2   3
ATOM      3  C   UNL     1      -5.369  -9.556 -26.644  1.00  0.00     0.096 C 
BRANCH   3   4
ATOM      4  C   UNL     1      -5.851 -10.973 -26.690  1.00  0.00    -0.024 C 
ATOM      5  C   UNL     1      -6.243 -11.675 -25.618  1.00  0.00     0.005 C 
ENDBRANCH   3   4
ENDBRANCH   2   3
ENDBRANCH   1   2
BRANCH   1   6
ATOM      6  C   UNL     1      -1.432 -10.236 -27.824  1.00  0.00     0.172 C 
BRANCH   6   7
ATOM      7  C   UNL     1      -0.562  -9.312 -26.962  1.00  0.00     0.321 C 
ATOM      8  O   UNL     1       0.612  -9.052 -27.167  1.00  0.00    -0.251 OA
BRANCH   7   9
ATOM      9  O   UNL     1      -1.267  -8.819 -25.909  1.00  0.00    -0.480 OA
ATOM     10  H   UNL     1      -0.763  -9.087 -25.098  1.00  0.00     0.296 HD
ENDBRANCH   7   9
ENDBRANCH   6   7
BRANCH   6  11
ATOM     11  N   UNL     1      -0.682 -11.519 -28.038  1.00  0.00    -0.318 NA
ATOM     12  H   UNL     1       0.194 -11.254 -28.506  1.00  0.00     0.119 HD
ATOM     13  H   UNL     1      -1.170 -12.047 -28.771  1.00  0.00     0.119 HD
ENDBRANCH   6  11
ENDBRANCH   1   6
TORSDOF 7
ENDMDL
MODEL 9
REMARK VINA RESULT:      -4.3     13.365     14.985
REMARK SMILES C=CCSC[C@H](N)C(=O)O
REMARK SMILES IDX 5 1 4 2 3 3 2 4 1 5 6 6 8 7 9 8 10 9 7 11
REMARK H PARENT 10 10 7 12 7 13
ROOT
ATOM      1  C   UNL     1      -8.751  -0.657 -31.930  1.00  0.00     0.100 C 
ENDROOT
BRANCH   1   2
ATOM      2  S   UNL     1      -7.061  -0.003 -31.683  1.00  0.00    -0.156 SA
BRANCH   2   3
ATOM      3  C   UNL     1      -6.488  -1.208 -30.450  1.00  0.00     0.096 C 
BRANCH   3   4
ATOM      4  C   UNL     1      -5.111  -0.825 -30.002  1.00  0.00    -0.024 C 
ATOM      5  C   UNL     1      -4.070  -1.668 -29.947  1.00  0.00     0.005 C 
ENDBRANCH   3   4
ENDBRANCH   2   3
ENDBRANCH   1   2
BRANCH   1   6
ATOM      6  C   UNL     1      -9.812   0.427 -31.695  1.00  0.00     0.172 C 
BRANCH   6   7
ATOM      7  C   UNL     1     -10.549   0.710 -33.011  1.00  0.00     0.321 C 
ATOM      8  O   UNL     1     -10.745  -0.100 -33.901  1.00  0.00    -0.251 OA
BRANCH   7   9
ATOM      9  O   UNL     1     -10.954   2.007 -33.075  1.00  0.00    -0.480 OA
ATOM     10  H   UNL     1     -11.919   2.000 -32.847  1.00  0.00     0.296 HD
ENDBRANCH   7   9
ENDBRANCH   6   7
BRANCH   6  11
ATOM     11  N   UNL     1     -10.833   0.058 -30.657  1.00  0.00    -0.318 NA
ATOM     12  H   UNL     1     -10.535  -0.853 -30.285  1.00  0.00     0.119 HD
ATOM     13  H   UNL     1     -11.703  -0.182 -31.147  1.00  0.00     0.119 HD
ENDBRANCH   6  11
ENDBRANCH   1   6
TORSDOF 7
ENDMDL
MODEL 10
REMARK VINA RESULT:      -4.3     12.421     13.543
REMARK SMILES C=CCSC[C@H](N)C(=O)O
REMARK SMILES IDX 5 1 4 2 3 3 2 4 1 5 6 6 8 7 9 8 10 9 7 11
REMARK H PARENT 10 10 7 12 7 13
ROOT
ATOM      1  C   UNL     1      -5.881   0.161 -31.435  1.00  0.00     0.100 C 
ENDROOT
BRANCH   1   2
ATOM      2  S   UNL     1      -7.097   1.498 -31.716  1.00  0.00    -0.156 SA
BRANCH   2   3
ATOM      3  C   UNL     1      -7.809   0.886 -33.272  1.00  0.00     0.096 C 
BRANCH   3   4
ATOM      4  C   UNL     1      -9.299   1.007 -33.204  1.00  0.00    -0.024 C 
ATOM      5  C   UNL     1     -10.157   0.144 -33.766  1.00  0.00     0.005 C 
ENDBRANCH   3   4
ENDBRANCH   2   3
ENDBRANCH   1   2
BRANCH   1   6
ATOM      6  C   UNL     1      -4.468   0.723 -31.228  1.00  0.00     0.172 C 
BRANCH   6   7
ATOM      7  C   UNL     1      -3.468  -0.437 -31.137  1.00  0.00     0.321 C 
ATOM      8  O   UNL     1      -3.728  -1.568 -30.763  1.00  0.00    -0.251 OA
BRANCH   7   9
ATOM      9  O   UNL     1      -2.223  -0.040 -31.517  1.00  0.00    -0.480 OA
ATOM     10  H   UNL     1      -1.649  -0.845 -31.437  1.00  0.00     0.296 HD
ENDBRANCH   7   9
ENDBRANCH   6   7
BRANCH   6  11
ATOM     11  N   UNL     1      -4.017   1.643 -32.326  1.00  0.00    -0.318 NA
ATOM     12  H   UNL     1      -3.966   1.062 -33.173  1.00  0.00     0.119 HD
ATOM     13  H   UNL     1      -3.030   1.870 -32.158  1.00  0.00     0.119 HD
ENDBRANCH   6  11
ENDBRANCH   1   6
TORSDOF 7
ENDMDL
