MODEL 1
REMARK VINA RESULT:      -6.1      0.000      0.000
REMARK SMILES O=C(O)/C=C\c1ccccc1O
REMARK SMILES IDX 5 1 4 2 6 3 8 4 9 5 7 6 10 7 11 8 12 9 2 11 1 12 3 13
REMARK H PARENT 12 10 3 14
ROOT
ATOM      1  C   UNL     1       6.511  -0.783 -19.093  1.00  0.00     0.019 C 
ATOM      2  C   UNL     1       6.261  -1.713 -20.027  1.00  0.00     0.094 C 
ENDROOT
BRANCH   1   3
ATOM      3  C   UNL     1       7.387  -0.894 -17.916  1.00  0.00     0.017 A 
ATOM      4  C   UNL     1       9.543  -0.349 -16.922  1.00  0.00     0.001 A 
ATOM      5  C   UNL     1       9.118  -0.856 -15.696  1.00  0.00     0.004 A 
ATOM      6  C   UNL     1       8.681  -0.361 -18.023  1.00  0.00     0.012 A 
ATOM      7  C   UNL     1       7.833  -1.381 -15.572  1.00  0.00     0.047 A 
ATOM      8  C   UNL     1       6.983  -1.406 -16.676  1.00  0.00     0.122 A 
BRANCH   8   9
ATOM      9  O   UNL     1       5.743  -1.946 -16.480  1.00  0.00    -0.507 OA
ATOM     10  H   UNL     1       5.870  -2.921 -16.482  1.00  0.00     0.293 HD
ENDBRANCH   8   9
ENDBRANCH   1   3
BRANCH   2  11
ATOM     11  C   UNL     1       6.784  -3.085 -19.984  1.00  0.00     0.328 C 
ATOM     12  O   UNL     1       7.661  -3.498 -20.724  1.00  0.00    -0.247 OA
BRANCH  11  13
ATOM     13  O   UNL     1       6.217  -3.803 -18.999  1.00  0.00    -0.478 OA
ATOM     14  H   UNL     1       5.696  -4.568 -19.310  1.00  0.00     0.297 HD
ENDBRANCH  11  13
ENDBRANCH   2  11
TORSDOF 4
ENDMDL
MODEL 2
REMARK VINA RESULT:      -5.9      2.133      4.006
REMARK SMILES O=C(O)/C=C\c1ccccc1O
REMARK SMILES IDX 5 1 4 2 6 3 8 4 9 5 7 6 10 7 11 8 12 9 2 11 1 12 3 13
REMARK H PARENT 12 10 3 14
ROOT
ATOM      1  C   UNL     1       7.436   0.473 -17.257  1.00  0.00     0.019 C 
ATOM      2  C   UNL     1       8.435   0.595 -16.371  1.00  0.00     0.094 C 
ENDROOT
BRANCH   1   3
ATOM      3  C   UNL     1       6.953  -0.752 -17.914  1.00  0.00     0.017 A 
ATOM      4  C   UNL     1       6.998  -2.148 -19.910  1.00  0.00     0.001 A 
ATOM      5  C   UNL     1       6.270  -3.135 -19.249  1.00  0.00     0.004 A 
ATOM      6  C   UNL     1       7.343  -0.967 -19.245  1.00  0.00     0.012 A 
ATOM      7  C   UNL     1       5.883  -2.940 -17.925  1.00  0.00     0.047 A 
ATOM      8  C   UNL     1       6.214  -1.755 -17.271  1.00  0.00     0.122 A 
BRANCH   8   9
ATOM      9  O   UNL     1       5.790  -1.632 -15.978  1.00  0.00    -0.507 OA
ATOM     10  H   UNL     1       5.920  -2.516 -15.566  1.00  0.00     0.293 HD
ENDBRANCH   8   9
ENDBRANCH   1   3
BRANCH   2  11
ATOM     11  C   UNL     1       9.303  -0.513 -15.949  1.00  0.00     0.328 C 
ATOM     12  O   UNL     1       8.894  -1.518 -15.392  1.00  0.00    -0.247 OA
BRANCH  11  13
ATOM     13  O   UNL     1      10.583  -0.304 -16.302  1.00  0.00    -0.478 OA
ATOM     14  H   UNL     1      10.967  -1.013 -16.851  1.00  0.00     0.297 HD
ENDBRANCH  11  13
ENDBRANCH   2  11
TORSDOF 4
ENDMDL
MODEL 3
REMARK VINA RESULT:      -5.9     19.556     21.427
REMARK SMILES O=C(O)/C=C\c1ccccc1O
REMARK SMILES IDX 5 1 4 2 6 3 8 4 9 5 7 6 10 7 11 8 12 9 2 11 1 12 3 13
REMARK H PARENT 12 10 3 14
ROOT
ATOM      1  C   UNL     1      -8.211   0.513 -33.516  1.00  0.00     0.019 C 
ATOM      2  C   UNL     1      -9.451   0.504 -34.029  1.00  0.00     0.094 C 
ENDROOT
BRANCH   1   3
ATOM      3  C   UNL     1      -7.817   0.603 -32.101  1.00  0.00     0.017 A 
ATOM      4  C   UNL     1      -7.221   2.057 -30.240  1.00  0.00     0.001 A 
ATOM      5  C   UNL     1      -7.232   0.968 -29.371  1.00  0.00     0.004 A 
ATOM      6  C   UNL     1      -7.518   1.877 -31.595  1.00  0.00     0.012 A 
ATOM      7  C   UNL     1      -7.535  -0.302 -29.858  1.00  0.00     0.047 A 
ATOM      8  C   UNL     1      -7.814  -0.480 -31.211  1.00  0.00     0.122 A 
BRANCH   8   9
ATOM      9  O   UNL     1      -8.091  -1.756 -31.615  1.00  0.00    -0.507 OA
ATOM     10  H   UNL     1      -7.696  -2.346 -30.935  1.00  0.00     0.293 HD
ENDBRANCH   8   9
ENDBRANCH   1   3
BRANCH   2  11
ATOM     11  C   UNL     1     -10.674   0.668 -33.232  1.00  0.00     0.328 C 
ATOM     12  O   UNL     1     -11.356  -0.264 -32.840  1.00  0.00    -0.247 OA
BRANCH  11  13
ATOM     13  O   UNL     1     -10.910   1.960 -32.944  1.00  0.00    -0.478 OA
ATOM     14  H   UNL     1     -10.493   2.269 -32.119  1.00  0.00     0.297 HD
ENDBRANCH  11  13
ENDBRANCH   2  11
TORSDOF 4
ENDMDL
MODEL 4
REMARK VINA RESULT:      -5.6     13.771     15.835
REMARK SMILES O=C(O)/C=C\c1ccccc1O
REMARK SMILES IDX 5 1 4 2 6 3 8 4 9 5 7 6 10 7 11 8 12 9 2 11 1 12 3 13
REMARK H PARENT 12 10 3 14
ROOT
ATOM      1  C   UNL     1      -2.831  -9.230 -28.190  1.00  0.00     0.019 C 
ATOM      2  C   UNL     1      -4.165  -9.248 -28.049  1.00  0.00     0.094 C 
ENDROOT
BRANCH   1   3
ATOM      3  C   UNL     1      -1.824  -9.920 -27.369  1.00  0.00     0.017 A 
ATOM      4  C   UNL     1      -0.407 -11.884 -27.105  1.00  0.00     0.001 A 
ATOM      5  C   UNL     1       0.229 -11.292 -26.016  1.00  0.00     0.004 A 
ATOM      6  C   UNL     1      -1.423 -11.200 -27.781  1.00  0.00     0.012 A 
ATOM      7  C   UNL     1      -0.153 -10.018 -25.600  1.00  0.00     0.047 A 
ATOM      8  C   UNL     1      -1.176  -9.347 -26.266  1.00  0.00     0.122 A 
BRANCH   8   9
ATOM      9  O   UNL     1      -1.502  -8.107 -25.793  1.00  0.00    -0.507 OA
ATOM     10  H   UNL     1      -2.431  -8.173 -25.480  1.00  0.00     0.293 HD
ENDBRANCH   8   9
ENDBRANCH   1   3
BRANCH   2  11
ATOM     11  C   UNL     1      -4.869  -9.930 -26.955  1.00  0.00     0.328 C 
ATOM     12  O   UNL     1      -4.712 -11.108 -26.679  1.00  0.00    -0.247 OA
BRANCH  11  13
ATOM     13  O   UNL     1      -5.657  -9.085 -26.268  1.00  0.00    -0.478 OA
ATOM     14  H   UNL     1      -5.438  -8.143 -26.392  1.00  0.00     0.297 HD
ENDBRANCH  11  13
ENDBRANCH   2  11
TORSDOF 4
ENDMDL
MODEL 5
REMARK VINA RESULT:      -5.6     14.877     15.985
REMARK SMILES O=C(O)/C=C\c1ccccc1O
REMARK SMILES IDX 5 1 4 2 6 3 8 4 9 5 7 6 10 7 11 8 12 9 2 11 1 12 3 13
REMARK H PARENT 12 10 3 14
ROOT
ATOM      1  C   UNL     1      -2.642   2.045 -27.874  1.00  0.00     0.019 C 
ATOM      2  C   UNL     1      -3.174   3.121 -28.473  1.00  0.00     0.094 C 
ENDROOT
BRANCH   1   3
ATOM      3  C   UNL     1      -3.050   0.638 -28.011  1.00  0.00     0.017 A 
ATOM      4  C   UNL     1      -4.373  -1.198 -27.108  1.00  0.00     0.001 A 
ATOM      5  C   UNL     1      -4.072  -1.977 -28.223  1.00  0.00     0.004 A 
ATOM      6  C   UNL     1      -3.872   0.104 -27.006  1.00  0.00     0.012 A 
ATOM      7  C   UNL     1      -3.264  -1.458 -29.232  1.00  0.00     0.047 A 
ATOM      8  C   UNL     1      -2.753  -0.167 -29.119  1.00  0.00     0.122 A 
BRANCH   8   9
ATOM      9  O   UNL     1      -1.960   0.268 -30.144  1.00  0.00    -0.507 OA
ATOM     10  H   UNL     1      -1.033   0.146 -29.838  1.00  0.00     0.293 HD
ENDBRANCH   8   9
ENDBRANCH   1   3
BRANCH   2  11
ATOM     11  C   UNL     1      -4.355   3.079 -29.345  1.00  0.00     0.328 C 
ATOM     12  O   UNL     1      -5.478   3.380 -28.978  1.00  0.00    -0.247 OA
BRANCH  11  13
ATOM     13  O   UNL     1      -4.033   2.724 -30.601  1.00  0.00    -0.478 OA
ATOM     14  H   UNL     1      -3.074   2.711 -30.780  1.00  0.00     0.297 HD
ENDBRANCH  11  13
ENDBRANCH   2  11
TORSDOF 4
ENDMDL
MODEL 6
REMARK VINA RESULT:      -5.6     14.490     15.654
REMARK SMILES O=C(O)/C=C\c1ccccc1O
REMARK SMILES IDX 5 1 4 2 6 3 8 4 9 5 7 6 10 7 11 8 12 9 2 11 1 12 3 13
REMARK H PARENT 12 10 3 14
ROOT
ATOM      1  C   UNL     1      -2.530   1.558 -27.776  1.00  0.00     0.019 C 
ATOM      2  C   UNL     1      -2.914   2.740 -28.280  1.00  0.00     0.094 C 
ENDROOT
BRANCH   1   3
ATOM      3  C   UNL     1      -3.245   0.273 -27.833  1.00  0.00     0.017 A 
ATOM      4  C   UNL     1      -3.491  -1.874 -28.956  1.00  0.00     0.001 A 
ATOM      5  C   UNL     1      -4.385  -2.297 -27.974  1.00  0.00     0.004 A 
ATOM      6  C   UNL     1      -2.919  -0.600 -28.882  1.00  0.00     0.012 A 
ATOM      7  C   UNL     1      -4.711  -1.445 -26.922  1.00  0.00     0.047 A 
ATOM      8  C   UNL     1      -4.152  -0.170 -26.862  1.00  0.00     0.122 A 
BRANCH   8   9
ATOM      9  O   UNL     1      -4.530   0.612 -25.806  1.00  0.00    -0.507 OA
ATOM     10  H   UNL     1      -5.512   0.583 -25.786  1.00  0.00     0.293 HD
ENDBRANCH   8   9
ENDBRANCH   1   3
BRANCH   2  11
ATOM     11  C   UNL     1      -4.207   2.975 -28.937  1.00  0.00     0.328 C 
ATOM     12  O   UNL     1      -4.401   2.806 -30.129  1.00  0.00    -0.247 OA
BRANCH  11  13
ATOM     13  O   UNL     1      -5.153   3.342 -28.055  1.00  0.00    -0.478 OA
ATOM     14  H   UNL     1      -6.067   3.210 -28.371  1.00  0.00     0.297 HD
ENDBRANCH  11  13
ENDBRANCH   2  11
TORSDOF 4
ENDMDL
MODEL 7
REMARK VINA RESULT:      -5.5     15.126     15.997
REMARK SMILES O=C(O)/C=C\c1ccccc1O
REMARK SMILES IDX 5 1 4 2 6 3 8 4 9 5 7 6 10 7 11 8 12 9 2 11 1 12 3 13
REMARK H PARENT 12 10 3 14
ROOT
ATOM      1  C   UNL     1      -2.309   0.113 -28.819  1.00  0.00     0.019 C 
ATOM      2  C   UNL     1      -1.974   0.143 -30.117  1.00  0.00     0.094 C 
ENDROOT
BRANCH   1   3
ATOM      3  C   UNL     1      -3.579  -0.330 -28.222  1.00  0.00     0.017 A 
ATOM      4  C   UNL     1      -4.926  -2.211 -27.458  1.00  0.00     0.001 A 
ATOM      5  C   UNL     1      -5.870  -1.333 -26.928  1.00  0.00     0.004 A 
ATOM      6  C   UNL     1      -3.784  -1.712 -28.094  1.00  0.00     0.012 A 
ATOM      7  C   UNL     1      -5.676   0.042 -27.040  1.00  0.00     0.047 A 
ATOM      8  C   UNL     1      -4.545   0.534 -27.689  1.00  0.00     0.122 A 
BRANCH   8   9
ATOM      9  O   UNL     1      -4.430   1.894 -27.768  1.00  0.00    -0.507 OA
ATOM     10  H   UNL     1      -4.387   2.106 -28.727  1.00  0.00     0.293 HD
ENDBRANCH   8   9
ENDBRANCH   1   3
BRANCH   2  11
ATOM     11  C   UNL     1      -2.888  -0.205 -31.213  1.00  0.00     0.328 C 
ATOM     12  O   UNL     1      -3.175  -1.351 -31.516  1.00  0.00    -0.247 OA
BRANCH  11  13
ATOM     13  O   UNL     1      -3.405   0.890 -31.796  1.00  0.00    -0.478 OA
ATOM     14  H   UNL     1      -3.909   0.709 -32.612  1.00  0.00     0.297 HD
ENDBRANCH  11  13
ENDBRANCH   2  11
TORSDOF 4
ENDMDL
MODEL 8
REMARK VINA RESULT:      -5.5     14.375     15.938
REMARK SMILES O=C(O)/C=C\c1ccccc1O
REMARK SMILES IDX 5 1 4 2 6 3 8 4 9 5 7 6 10 7 11 8 12 9 2 11 1 12 3 13
REMARK H PARENT 12 10 3 14
ROOT
ATOM      1  C   UNL     1      -4.982  -2.111 -27.854  1.00  0.00     0.019 C 
ATOM      2  C   UNL     1      -6.127  -2.177 -28.550  1.00  0.00     0.094 C 
ENDROOT
BRANCH   1   3
ATOM      3  C   UNL     1      -3.948  -1.065 -27.907  1.00  0.00     0.017 A 
ATOM      4  C   UNL     1      -2.081  -0.105 -29.142  1.00  0.00     0.001 A 
ATOM      5  C   UNL     1      -2.033   0.969 -28.255  1.00  0.00     0.004 A 
ATOM      6  C   UNL     1      -3.037  -1.112 -28.973  1.00  0.00     0.012 A 
ATOM      7  C   UNL     1      -2.937   1.034 -27.197  1.00  0.00     0.047 A 
ATOM      8  C   UNL     1      -3.877   0.020 -27.023  1.00  0.00     0.122 A 
BRANCH   8   9
ATOM      9  O   UNL     1      -4.722   0.147 -25.956  1.00  0.00    -0.507 OA
ATOM     10  H   UNL     1      -4.780   1.112 -25.772  1.00  0.00     0.293 HD
ENDBRANCH   8   9
ENDBRANCH   1   3
BRANCH   2  11
ATOM     11  C   UNL     1      -6.520  -1.210 -29.584  1.00  0.00     0.328 C 
ATOM     12  O   UNL     1      -6.252  -1.338 -30.767  1.00  0.00    -0.247 OA
BRANCH  11  13
ATOM     13  O   UNL     1      -7.252  -0.205 -29.072  1.00  0.00    -0.478 OA
ATOM     14  H   UNL     1      -6.754   0.621 -28.929  1.00  0.00     0.297 HD
ENDBRANCH  11  13
ENDBRANCH   2  11
TORSDOF 4
ENDMDL
MODEL 9
REMARK VINA RESULT:      -5.4     16.896     18.518
REMARK SMILES O=C(O)/C=C\c1ccccc1O
REMARK SMILES IDX 5 1 4 2 6 3 8 4 9 5 7 6 10 7 11 8 12 9 2 11 1 12 3 13
REMARK H PARENT 12 10 3 14
ROOT
ATOM      1  C   UNL     1       9.632   7.555 -33.949  1.00  0.00     0.019 C 
ATOM      2  C   UNL     1      10.030   6.710 -32.986  1.00  0.00     0.094 C 
ENDROOT
BRANCH   1   3
ATOM      3  C   UNL     1       8.502   8.497 -33.918  1.00  0.00     0.017 A 
ATOM      4  C   UNL     1       6.095   8.801 -34.140  1.00  0.00     0.001 A 
ATOM      5  C   UNL     1       6.213  10.123 -33.719  1.00  0.00     0.004 A 
ATOM      6  C   UNL     1       7.232   7.990 -34.232  1.00  0.00     0.012 A 
ATOM      7  C   UNL     1       7.467  10.638 -33.395  1.00  0.00     0.047 A 
ATOM      8  C   UNL     1       8.598   9.832 -33.504  1.00  0.00     0.122 A 
BRANCH   8   9
ATOM      9  O   UNL     1       9.793  10.411 -33.180  1.00  0.00    -0.507 OA
ATOM     10  H   UNL     1       9.918  11.148 -33.819  1.00  0.00     0.293 HD
ENDBRANCH   8   9
ENDBRANCH   1   3
BRANCH   2  11
ATOM     11  C   UNL     1       9.323   6.521 -31.712  1.00  0.00     0.328 C 
ATOM     12  O   UNL     1       8.517   5.628 -31.511  1.00  0.00    -0.247 OA
BRANCH  11  13
ATOM     13  O   UNL     1       9.717   7.415 -30.788  1.00  0.00    -0.478 OA
ATOM     14  H   UNL     1      10.362   8.070 -31.115  1.00  0.00     0.297 HD
ENDBRANCH  11  13
ENDBRANCH   2  11
TORSDOF 4
ENDMDL
MODEL 10
REMARK VINA RESULT:      -5.4     14.779     16.386
REMARK SMILES O=C(O)/C=C\c1ccccc1O
REMARK SMILES IDX 5 1 4 2 6 3 8 4 9 5 7 6 10 7 11 8 12 9 2 11 1 12 3 13
REMARK H PARENT 12 10 3 14
ROOT
ATOM      1  C   UNL     1      -5.047  -2.042 -28.042  1.00  0.00     0.019 C 
ATOM      2  C   UNL     1      -6.293  -2.106 -28.536  1.00  0.00     0.094 C 
ENDROOT
BRANCH   1   3
ATOM      3  C   UNL     1      -4.025  -1.014 -28.293  1.00  0.00     0.017 A 
ATOM      4  C   UNL     1      -2.753   0.858 -27.391  1.00  0.00     0.001 A 
ATOM      5  C   UNL     1      -1.970   0.894 -28.543  1.00  0.00     0.004 A 
ATOM      6  C   UNL     1      -3.770  -0.095 -27.264  1.00  0.00     0.012 A 
ATOM      7  C   UNL     1      -2.206  -0.017 -29.570  1.00  0.00     0.047 A 
ATOM      8  C   UNL     1      -3.231  -0.954 -29.446  1.00  0.00     0.122 A 
BRANCH   8   9
ATOM      9  O   UNL     1      -3.409  -1.807 -30.499  1.00  0.00    -0.507 OA
ATOM     10  H   UNL     1      -4.054  -1.366 -31.097  1.00  0.00     0.293 HD
ENDBRANCH   8   9
ENDBRANCH   1   3
BRANCH   2  11
ATOM     11  C   UNL     1      -6.842  -1.157 -29.514  1.00  0.00     0.328 C 
ATOM     12  O   UNL     1      -7.520  -0.189 -29.210  1.00  0.00    -0.247 OA
BRANCH  11  13
ATOM     13  O   UNL     1      -6.458  -1.456 -30.767  1.00  0.00    -0.478 OA
ATOM     14  H   UNL     1      -7.139  -1.913 -31.295  1.00  0.00     0.297 HD
ENDBRANCH  11  13
ENDBRANCH   2  11
TORSDOF 4
ENDMDL
