MODEL 1
REMARK VINA RESULT:      -6.8      0.000      0.000
REMARK SMILES C/C=C/c1ccc(O)c(OC)c1
REMARK SMILES IDX 4 1 12 2 9 3 7 4 6 5 5 6 3 7 2 8 1 9 10 10 11 11 8 12
REMARK H PARENT 8 13
ROOT
ATOM      1  C   UNL     1       6.165  -2.171 -20.384  1.00  0.00    -0.022 A 
ATOM      2  C   UNL     1       6.520  -1.017 -19.661  1.00  0.00     0.058 A 
ATOM      3  C   UNL     1       6.616  -1.056 -18.269  1.00  0.00     0.161 A 
ATOM      4  C   UNL     1       6.341  -2.257 -17.607  1.00  0.00     0.157 A 
ATOM      5  C   UNL     1       5.974  -3.402 -18.299  1.00  0.00     0.051 A 
ATOM      6  C   UNL     1       5.880  -3.356 -19.690  1.00  0.00     0.012 A 
ENDROOT
BRANCH   1   7
ATOM      7  C   UNL     1       6.022  -2.160 -21.848  1.00  0.00     0.003 C 
ATOM      8  C   UNL     1       4.847  -2.069 -22.490  1.00  0.00    -0.030 C 
ATOM      9  C   UNL     1       4.717  -2.048 -23.978  1.00  0.00     0.035 C 
ENDBRANCH   1   7
BRANCH   3  10
ATOM     10  O   UNL     1       6.956  -0.009 -17.450  1.00  0.00    -0.493 OA
ATOM     11  C   UNL     1       8.304   0.443 -17.520  1.00  0.00     0.278 C 
ENDBRANCH   3  10
BRANCH   4  12
ATOM     12  O   UNL     1       6.424  -2.326 -16.242  1.00  0.00    -0.504 OA
ATOM     13  H   UNL     1       6.445  -1.395 -15.946  1.00  0.00     0.293 HD
ENDBRANCH   4  12
TORSDOF 3
ENDMDL
MODEL 2
REMARK VINA RESULT:      -6.1      1.634      2.240
REMARK SMILES C/C=C/c1ccc(O)c(OC)c1
REMARK SMILES IDX 4 1 12 2 9 3 7 4 6 5 5 6 3 7 2 8 1 9 10 10 11 11 8 12
REMARK H PARENT 8 13
ROOT
ATOM      1  C   UNL     1       6.958  -1.288 -18.930  1.00  0.00    -0.022 A 
ATOM      2  C   UNL     1       8.224  -0.749 -18.639  1.00  0.00     0.058 A 
ATOM      3  C   UNL     1       8.698  -0.725 -17.325  1.00  0.00     0.161 A 
ATOM      4  C   UNL     1       7.887  -1.231 -16.305  1.00  0.00     0.157 A 
ATOM      5  C   UNL     1       6.628  -1.752 -16.568  1.00  0.00     0.051 A 
ATOM      6  C   UNL     1       6.161  -1.774 -17.883  1.00  0.00     0.012 A 
ENDROOT
BRANCH   1   7
ATOM      7  C   UNL     1       6.412  -1.302 -20.295  1.00  0.00     0.003 C 
ATOM      8  C   UNL     1       5.831  -2.370 -20.864  1.00  0.00    -0.030 C 
ATOM      9  C   UNL     1       5.270  -2.367 -22.249  1.00  0.00     0.035 C 
ENDBRANCH   1   7
BRANCH   3  10
ATOM     10  O   UNL     1       9.910  -0.235 -16.910  1.00  0.00    -0.493 OA
ATOM     11  C   UNL     1       9.910   1.071 -16.344  1.00  0.00     0.278 C 
ENDBRANCH   3  10
BRANCH   4  12
ATOM     12  O   UNL     1       8.322  -1.218 -15.008  1.00  0.00    -0.504 OA
ATOM     13  H   UNL     1       8.515  -2.154 -14.800  1.00  0.00     0.293 HD
ENDBRANCH   4  12
TORSDOF 3
ENDMDL
MODEL 3
REMARK VINA RESULT:      -6.1     13.270     14.859
REMARK SMILES C/C=C/c1ccc(O)c(OC)c1
REMARK SMILES IDX 4 1 12 2 9 3 7 4 6 5 5 6 3 7 2 8 1 9 10 10 11 11 8 12
REMARK H PARENT 8 13
ROOT
ATOM      1  C   UNL     1      -3.607  -0.016 -27.809  1.00  0.00    -0.022 A 
ATOM      2  C   UNL     1      -4.649  -0.479 -28.632  1.00  0.00     0.058 A 
ATOM      3  C   UNL     1      -4.433  -0.691 -29.995  1.00  0.00     0.161 A 
ATOM      4  C   UNL     1      -3.169  -0.421 -30.528  1.00  0.00     0.157 A 
ATOM      5  C   UNL     1      -2.132   0.051 -29.737  1.00  0.00     0.051 A 
ATOM      6  C   UNL     1      -2.354   0.260 -28.376  1.00  0.00     0.012 A 
ENDROOT
BRANCH   1   7
ATOM      7  C   UNL     1      -3.805   0.249 -26.376  1.00  0.00     0.003 C 
ATOM      8  C   UNL     1      -4.857  -0.188 -25.666  1.00  0.00    -0.030 C 
ATOM      9  C   UNL     1      -5.039   0.079 -24.207  1.00  0.00     0.035 C 
ENDBRANCH   1   7
BRANCH   3  10
ATOM     10  O   UNL     1      -5.359  -1.142 -30.902  1.00  0.00    -0.493 OA
ATOM     11  C   UNL     1      -6.478  -0.298 -31.145  1.00  0.00     0.278 C 
ENDBRANCH   3  10
BRANCH   4  12
ATOM     12  O   UNL     1      -2.927  -0.616 -31.861  1.00  0.00    -0.504 OA
ATOM     13  H   UNL     1      -3.482  -1.383 -32.106  1.00  0.00     0.293 HD
ENDBRANCH   4  12
TORSDOF 3
ENDMDL
MODEL 4
REMARK VINA RESULT:      -5.8      2.475      4.184
REMARK SMILES C/C=C/c1ccc(O)c(OC)c1
REMARK SMILES IDX 4 1 12 2 9 3 7 4 6 5 5 6 3 7 2 8 1 9 10 10 11 11 8 12
REMARK H PARENT 8 13
ROOT
ATOM      1  C   UNL     1       8.161  -0.506 -17.980  1.00  0.00    -0.022 A 
ATOM      2  C   UNL     1       9.325  -0.783 -17.241  1.00  0.00     0.058 A 
ATOM      3  C   UNL     1       9.652  -0.013 -16.122  1.00  0.00     0.161 A 
ATOM      4  C   UNL     1       8.811   1.043 -15.760  1.00  0.00     0.157 A 
ATOM      5  C   UNL     1       7.666   1.343 -16.485  1.00  0.00     0.051 A 
ATOM      6  C   UNL     1       7.345   0.570 -17.600  1.00  0.00     0.012 A 
ENDROOT
BRANCH   1   7
ATOM      7  C   UNL     1       7.800  -1.273 -19.182  1.00  0.00     0.003 C 
ATOM      8  C   UNL     1       6.542  -1.588 -19.526  1.00  0.00    -0.030 C 
ATOM      9  C   UNL     1       6.188  -2.358 -20.757  1.00  0.00     0.035 C 
ENDBRANCH   1   7
BRANCH   3  10
ATOM     10  O   UNL     1      10.750  -0.181 -15.316  1.00  0.00    -0.493 OA
ATOM     11  C   UNL     1      11.980   0.351 -15.796  1.00  0.00     0.278 C 
ENDBRANCH   3  10
BRANCH   4  12
ATOM     12  O   UNL     1       9.106   1.817 -14.670  1.00  0.00    -0.504 OA
ATOM     13  H   UNL     1       8.250   1.948 -14.218  1.00  0.00     0.293 HD
ENDBRANCH   4  12
TORSDOF 3
ENDMDL
MODEL 5
REMARK VINA RESULT:      -5.7     12.983     13.623
REMARK SMILES C/C=C/c1ccc(O)c(OC)c1
REMARK SMILES IDX 4 1 12 2 9 3 7 4 6 5 5 6 3 7 2 8 1 9 10 10 11 11 8 12
REMARK H PARENT 8 13
ROOT
ATOM      1  C   UNL     1      -4.416  -0.975 -27.028  1.00  0.00    -0.022 A 
ATOM      2  C   UNL     1      -3.789   0.284 -27.002  1.00  0.00     0.058 A 
ATOM      3  C   UNL     1      -2.947   0.676 -28.045  1.00  0.00     0.161 A 
ATOM      4  C   UNL     1      -2.728  -0.208 -29.106  1.00  0.00     0.157 A 
ATOM      5  C   UNL     1      -3.324  -1.461 -29.143  1.00  0.00     0.051 A 
ATOM      6  C   UNL     1      -4.164  -1.846 -28.098  1.00  0.00     0.012 A 
ENDROOT
BRANCH   1   7
ATOM      7  C   UNL     1      -5.283  -1.436 -25.933  1.00  0.00     0.003 C 
ATOM      8  C   UNL     1      -5.632  -0.682 -24.879  1.00  0.00    -0.030 C 
ATOM      9  C   UNL     1      -6.524  -1.161 -23.780  1.00  0.00     0.035 C 
ENDBRANCH   1   7
BRANCH   3  10
ATOM     10  O   UNL     1      -2.283   1.872 -28.144  1.00  0.00    -0.493 OA
ATOM     11  C   UNL     1      -3.070   3.014 -28.465  1.00  0.00     0.278 C 
ENDBRANCH   3  10
BRANCH   4  12
ATOM     12  O   UNL     1      -1.907   0.146 -30.141  1.00  0.00    -0.504 OA
ATOM     13  H   UNL     1      -1.188   0.662 -29.724  1.00  0.00     0.293 HD
ENDBRANCH   4  12
TORSDOF 3
ENDMDL
MODEL 6
REMARK VINA RESULT:      -5.5     17.339     19.909
REMARK SMILES C/C=C/c1ccc(O)c(OC)c1
REMARK SMILES IDX 4 1 12 2 9 3 7 4 6 5 5 6 3 7 2 8 1 9 10 10 11 11 8 12
REMARK H PARENT 8 13
ROOT
ATOM      1  C   UNL     1      -7.586   1.233 -32.025  1.00  0.00    -0.022 A 
ATOM      2  C   UNL     1      -8.565   0.930 -31.061  1.00  0.00     0.058 A 
ATOM      3  C   UNL     1      -9.810   0.432 -31.449  1.00  0.00     0.161 A 
ATOM      4  C   UNL     1     -10.071   0.252 -32.811  1.00  0.00     0.157 A 
ATOM      5  C   UNL     1      -9.125   0.560 -33.779  1.00  0.00     0.051 A 
ATOM      6  C   UNL     1      -7.883   1.057 -33.384  1.00  0.00     0.012 A 
ENDROOT
BRANCH   1   7
ATOM      7  C   UNL     1      -6.275   1.790 -31.657  1.00  0.00     0.003 C 
ATOM      8  C   UNL     1      -6.098   2.765 -30.752  1.00  0.00    -0.030 C 
ATOM      9  C   UNL     1      -4.758   3.313 -30.380  1.00  0.00     0.035 C 
ENDBRANCH   1   7
BRANCH   3  10
ATOM     10  O   UNL     1     -10.844   0.093 -30.613  1.00  0.00    -0.493 OA
ATOM     11  C   UNL     1     -10.498  -0.604 -29.421  1.00  0.00     0.278 C 
ENDBRANCH   3  10
BRANCH   4  12
ATOM     12  O   UNL     1     -11.283  -0.232 -33.223  1.00  0.00    -0.504 OA
ATOM     13  H   UNL     1     -11.385   0.097 -34.137  1.00  0.00     0.293 HD
ENDBRANCH   4  12
TORSDOF 3
ENDMDL
MODEL 7
REMARK VINA RESULT:      -5.4     16.723     19.751
REMARK SMILES C/C=C/c1ccc(O)c(OC)c1
REMARK SMILES IDX 4 1 12 2 9 3 7 4 6 5 5 6 3 7 2 8 1 9 10 10 11 11 8 12
REMARK H PARENT 8 13
ROOT
ATOM      1  C   UNL     1      -7.389   0.520 -32.256  1.00  0.00    -0.022 A 
ATOM      2  C   UNL     1      -8.042  -0.580 -31.671  1.00  0.00     0.058 A 
ATOM      3  C   UNL     1      -9.389  -0.829 -31.941  1.00  0.00     0.161 A 
ATOM      4  C   UNL     1     -10.079   0.040 -32.791  1.00  0.00     0.157 A 
ATOM      5  C   UNL     1      -9.459   1.140 -33.367  1.00  0.00     0.051 A 
ATOM      6  C   UNL     1      -8.113   1.383 -33.093  1.00  0.00     0.012 A 
ENDROOT
BRANCH   1   7
ATOM      7  C   UNL     1      -5.981   0.833 -31.971  1.00  0.00     0.003 C 
ATOM      8  C   UNL     1      -5.195   0.103 -31.165  1.00  0.00    -0.030 C 
ATOM      9  C   UNL     1      -3.761   0.427 -30.893  1.00  0.00     0.035 C 
ENDBRANCH   1   7
BRANCH   3  10
ATOM     10  O   UNL     1     -10.137  -1.865 -31.442  1.00  0.00    -0.493 OA
ATOM     11  C   UNL     1      -9.425  -2.907 -30.784  1.00  0.00     0.278 C 
ENDBRANCH   3  10
BRANCH   4  12
ATOM     12  O   UNL     1     -11.401  -0.176 -33.073  1.00  0.00    -0.504 OA
ATOM     13  H   UNL     1     -11.405  -0.947 -33.674  1.00  0.00     0.293 HD
ENDBRANCH   4  12
TORSDOF 3
ENDMDL
MODEL 8
REMARK VINA RESULT:      -5.3     12.957     15.023
REMARK SMILES C/C=C/c1ccc(O)c(OC)c1
REMARK SMILES IDX 4 1 12 2 9 3 7 4 6 5 5 6 3 7 2 8 1 9 10 10 11 11 8 12
REMARK H PARENT 8 13
ROOT
ATOM      1  C   UNL     1      -4.599   0.409 -30.445  1.00  0.00    -0.022 A 
ATOM      2  C   UNL     1      -4.397   1.661 -29.837  1.00  0.00     0.058 A 
ATOM      3  C   UNL     1      -3.366   1.840 -28.912  1.00  0.00     0.161 A 
ATOM      4  C   UNL     1      -2.549   0.751 -28.592  1.00  0.00     0.157 A 
ATOM      5  C   UNL     1      -2.742  -0.497 -29.168  1.00  0.00     0.051 A 
ATOM      6  C   UNL     1      -3.773  -0.668 -30.092  1.00  0.00     0.012 A 
ENDROOT
BRANCH   1   7
ATOM      7  C   UNL     1      -5.693   0.174 -31.399  1.00  0.00     0.003 C 
ATOM      8  C   UNL     1      -6.435   1.147 -31.950  1.00  0.00    -0.030 C 
ATOM      9  C   UNL     1      -7.537   0.894 -32.928  1.00  0.00     0.035 C 
ENDBRANCH   1   7
BRANCH   3  10
ATOM     10  O   UNL     1      -3.060   3.004 -28.254  1.00  0.00    -0.493 OA
ATOM     11  C   UNL     1      -3.574   4.207 -28.815  1.00  0.00     0.278 C 
ENDBRANCH   3  10
BRANCH   4  12
ATOM     12  O   UNL     1      -1.533   0.894 -27.687  1.00  0.00    -0.504 OA
ATOM     13  H   UNL     1      -1.195   1.800 -27.831  1.00  0.00     0.293 HD
ENDBRANCH   4  12
TORSDOF 3
ENDMDL
MODEL 9
REMARK VINA RESULT:      -5.3     14.723     17.396
REMARK SMILES C/C=C/c1ccc(O)c(OC)c1
REMARK SMILES IDX 4 1 12 2 9 3 7 4 6 5 5 6 3 7 2 8 1 9 10 10 11 11 8 12
REMARK H PARENT 8 13
ROOT
ATOM      1  C   UNL     1      -6.883   1.263 -31.462  1.00  0.00    -0.022 A 
ATOM      2  C   UNL     1      -6.028   0.149 -31.517  1.00  0.00     0.058 A 
ATOM      3  C   UNL     1      -4.746   0.213 -30.966  1.00  0.00     0.161 A 
ATOM      4  C   UNL     1      -4.325   1.407 -30.373  1.00  0.00     0.157 A 
ATOM      5  C   UNL     1      -5.148   2.524 -30.323  1.00  0.00     0.051 A 
ATOM      6  C   UNL     1      -6.427   2.452 -30.874  1.00  0.00     0.012 A 
ENDROOT
BRANCH   1   7
ATOM      7  C   UNL     1      -8.228   1.244 -32.059  1.00  0.00     0.003 C 
ATOM      8  C   UNL     1      -8.546   0.576 -33.178  1.00  0.00    -0.030 C 
ATOM      9  C   UNL     1      -9.919   0.555 -33.767  1.00  0.00     0.035 C 
ENDBRANCH   1   7
BRANCH   3  10
ATOM     10  O   UNL     1      -3.820  -0.799 -30.948  1.00  0.00    -0.493 OA
ATOM     11  C   UNL     1      -3.914  -1.731 -29.877  1.00  0.00     0.278 C 
ENDBRANCH   3  10
BRANCH   4  12
ATOM     12  O   UNL     1      -3.074   1.502 -29.827  1.00  0.00    -0.504 OA
ATOM     13  H   UNL     1      -3.218   1.874 -28.935  1.00  0.00     0.293 HD
ENDBRANCH   4  12
TORSDOF 3
ENDMDL
MODEL 10
REMARK VINA RESULT:      -5.2     16.477     18.560
REMARK SMILES C/C=C/c1ccc(O)c(OC)c1
REMARK SMILES IDX 4 1 12 2 9 3 7 4 6 5 5 6 3 7 2 8 1 9 10 10 11 11 8 12
REMARK H PARENT 8 13
ROOT
ATOM      1  C   UNL     1      -8.506  -2.776 -30.637  1.00  0.00    -0.022 A 
ATOM      2  C   UNL     1      -8.546  -1.629 -31.449  1.00  0.00     0.058 A 
ATOM      3  C   UNL     1      -7.481  -0.726 -31.451  1.00  0.00     0.161 A 
ATOM      4  C   UNL     1      -6.382  -0.976 -30.624  1.00  0.00     0.157 A 
ATOM      5  C   UNL     1      -6.329  -2.094 -29.803  1.00  0.00     0.051 A 
ATOM      6  C   UNL     1      -7.397  -2.992 -29.806  1.00  0.00     0.012 A 
ENDROOT
BRANCH   1   7
ATOM      7  C   UNL     1      -9.622  -3.733 -30.583  1.00  0.00     0.003 C 
ATOM      8  C   UNL     1      -9.609  -4.867 -29.864  1.00  0.00    -0.030 C 
ATOM      9  C   UNL     1     -10.755  -5.824 -29.809  1.00  0.00     0.035 C 
ENDBRANCH   1   7
BRANCH   3  10
ATOM     10  O   UNL     1      -7.394   0.422 -32.196  1.00  0.00    -0.493 OA
ATOM     11  C   UNL     1      -8.057   0.417 -33.456  1.00  0.00     0.278 C 
ENDBRANCH   3  10
BRANCH   4  12
ATOM     12  O   UNL     1      -5.324  -0.109 -30.602  1.00  0.00    -0.504 OA
ATOM     13  H   UNL     1      -4.559  -0.641 -30.895  1.00  0.00     0.293 HD
ENDBRANCH   4  12
TORSDOF 3
ENDMDL
