MODEL 1
REMARK VINA RESULT:      -6.4      0.000      0.000
REMARK SMILES COc1cc(/C=C/C(=O)O)ccc1O
REMARK SMILES IDX 6 1 7 2 5 3 3 4 13 5 4 6 12 7 11 8 2 9 1 10 14 11 8 13 9 14
REMARK SMILES IDX 10 15
REMARK H PARENT 14 12 10 16
ROOT
ATOM      1  C   UNL     1      -8.517   1.284 -31.708  1.00  0.00     0.016 C 
ATOM      2  C   UNL     1      -8.852   0.870 -32.940  1.00  0.00     0.094 C 
ENDROOT
BRANCH   1   3
ATOM      3  C   UNL     1      -7.131   1.369 -31.230  1.00  0.00    -0.021 A 
ATOM      4  C   UNL     1      -4.954   0.311 -30.995  1.00  0.00     0.161 A 
ATOM      5  C   UNL     1      -4.480   1.481 -30.394  1.00  0.00     0.157 A 
ATOM      6  C   UNL     1      -6.284   0.263 -31.418  1.00  0.00     0.058 A 
ATOM      7  C   UNL     1      -5.296   2.590 -30.216  1.00  0.00     0.051 A 
ATOM      8  C   UNL     1      -6.623   2.535 -30.640  1.00  0.00     0.012 A 
BRANCH   4   9
ATOM      9  O   UNL     1      -4.030  -0.696 -31.108  1.00  0.00    -0.493 OA
ATOM     10  C   UNL     1      -4.006  -1.660 -30.061  1.00  0.00     0.278 C 
ENDBRANCH   4   9
BRANCH   5  11
ATOM     11  O   UNL     1      -3.182   1.561 -29.968  1.00  0.00    -0.504 OA
ATOM     12  H   UNL     1      -2.893   2.463 -30.209  1.00  0.00     0.293 HD
ENDBRANCH   5  11
ENDBRANCH   1   3
BRANCH   2  13
ATOM     13  C   UNL     1     -10.276   0.845 -33.330  1.00  0.00     0.328 C 
ATOM     14  O   UNL     1     -10.835  -0.103 -33.852  1.00  0.00    -0.247 OA
BRANCH  13  15
ATOM     15  O   UNL     1     -10.901   2.003 -33.036  1.00  0.00    -0.478 OA
ATOM     16  H   UNL     1     -11.861   1.939 -32.888  1.00  0.00     0.297 HD
ENDBRANCH  13  15
ENDBRANCH   2  13
TORSDOF 5
ENDMDL
MODEL 2
REMARK VINA RESULT:      -6.2      5.761      6.833
REMARK SMILES COc1cc(/C=C/C(=O)O)ccc1O
REMARK SMILES IDX 6 1 7 2 5 3 3 4 13 5 4 6 12 7 11 8 2 9 1 10 14 11 8 13 9 14
REMARK SMILES IDX 10 15
REMARK H PARENT 14 12 10 16
ROOT
ATOM      1  C   UNL     1      -5.363  -1.340 -25.928  1.00  0.00     0.016 C 
ATOM      2  C   UNL     1      -5.856  -0.487 -25.017  1.00  0.00     0.094 C 
ENDROOT
BRANCH   1   3
ATOM      3  C   UNL     1      -4.438  -0.941 -26.997  1.00  0.00    -0.021 A 
ATOM      4  C   UNL     1      -2.939   0.739 -27.917  1.00  0.00     0.161 A 
ATOM      5  C   UNL     1      -2.639  -0.140 -28.962  1.00  0.00     0.157 A 
ATOM      6  C   UNL     1      -3.838   0.329 -26.930  1.00  0.00     0.058 A 
ATOM      7  C   UNL     1      -3.207  -1.405 -29.036  1.00  0.00     0.051 A 
ATOM      8  C   UNL     1      -4.104  -1.808 -28.048  1.00  0.00     0.012 A 
BRANCH   4   9
ATOM      9  O   UNL     1      -2.296   1.948 -27.976  1.00  0.00    -0.493 OA
ATOM     10  C   UNL     1      -3.092   3.078 -28.316  1.00  0.00     0.278 C 
ENDBRANCH   4   9
BRANCH   5  11
ATOM     11  O   UNL     1      -1.762   0.231 -29.945  1.00  0.00    -0.504 OA
ATOM     12  H   UNL     1      -2.301   0.276 -30.759  1.00  0.00     0.293 HD
ENDBRANCH   5  11
ENDBRANCH   1   3
BRANCH   2  13
ATOM     13  C   UNL     1      -6.759  -0.997 -23.967  1.00  0.00     0.328 C 
ATOM     14  O   UNL     1      -7.625  -0.338 -23.419  1.00  0.00    -0.247 OA
BRANCH  13  15
ATOM     15  O   UNL     1      -6.520  -2.291 -23.677  1.00  0.00    -0.478 OA
ATOM     16  H   UNL     1      -6.430  -2.503 -22.732  1.00  0.00     0.297 HD
ENDBRANCH  13  15
ENDBRANCH   2  13
TORSDOF 5
ENDMDL
MODEL 3
REMARK VINA RESULT:      -6.2      0.956      2.468
REMARK SMILES COc1cc(/C=C/C(=O)O)ccc1O
REMARK SMILES IDX 6 1 7 2 5 3 3 4 13 5 4 6 12 7 11 8 2 9 1 10 14 11 8 13 9 14
REMARK SMILES IDX 10 15
REMARK H PARENT 14 12 10 16
ROOT
ATOM      1  C   UNL     1      -8.554   1.433 -31.705  1.00  0.00     0.016 C 
ATOM      2  C   UNL     1      -9.114   0.619 -32.613  1.00  0.00     0.094 C 
ENDROOT
BRANCH   1   3
ATOM      3  C   UNL     1      -7.136   1.375 -31.327  1.00  0.00    -0.021 A 
ATOM      4  C   UNL     1      -5.224   2.461 -30.287  1.00  0.00     0.161 A 
ATOM      5  C   UNL     1      -4.468   1.311 -30.539  1.00  0.00     0.157 A 
ATOM      6  C   UNL     1      -6.564   2.485 -30.680  1.00  0.00     0.058 A 
ATOM      7  C   UNL     1      -5.020   0.200 -31.161  1.00  0.00     0.051 A 
ATOM      8  C   UNL     1      -6.358   0.229 -31.550  1.00  0.00     0.012 A 
BRANCH   4   9
ATOM      9  O   UNL     1      -4.544   3.474 -29.662  1.00  0.00    -0.493 OA
ATOM     10  C   UNL     1      -4.356   4.672 -30.407  1.00  0.00     0.278 C 
ENDBRANCH   4   9
BRANCH   5  11
ATOM     11  O   UNL     1      -3.152   1.257 -30.167  1.00  0.00    -0.504 OA
ATOM     12  H   UNL     1      -3.025   2.026 -29.578  1.00  0.00     0.293 HD
ENDBRANCH   5  11
ENDBRANCH   1   3
BRANCH   2  13
ATOM     13  C   UNL     1     -10.544   0.779 -32.939  1.00  0.00     0.328 C 
ATOM     14  O   UNL     1     -11.330  -0.141 -33.079  1.00  0.00    -0.247 OA
BRANCH  13  15
ATOM     15  O   UNL     1     -10.894   2.075 -33.064  1.00  0.00    -0.478 OA
ATOM     16  H   UNL     1     -10.223   2.659 -33.459  1.00  0.00     0.297 HD
ENDBRANCH  13  15
ENDBRANCH   2  13
TORSDOF 5
ENDMDL
MODEL 4
REMARK VINA RESULT:      -6.1      3.786      6.390
REMARK SMILES COc1cc(/C=C/C(=O)O)ccc1O
REMARK SMILES IDX 6 1 7 2 5 3 3 4 13 5 4 6 12 7 11 8 2 9 1 10 14 11 8 13 9 14
REMARK SMILES IDX 10 15
REMARK H PARENT 14 12 10 16
ROOT
ATOM      1  C   UNL     1      -4.175   0.110 -26.475  1.00  0.00     0.016 C 
ATOM      2  C   UNL     1      -5.059  -0.673 -25.837  1.00  0.00     0.094 C 
ENDROOT
BRANCH   1   3
ATOM      3  C   UNL     1      -3.807  -0.064 -27.887  1.00  0.00    -0.021 A 
ATOM      4  C   UNL     1      -4.515  -0.521 -30.168  1.00  0.00     0.161 A 
ATOM      5  C   UNL     1      -3.189  -0.359 -30.583  1.00  0.00     0.157 A 
ATOM      6  C   UNL     1      -4.820  -0.366 -28.814  1.00  0.00     0.058 A 
ATOM      7  C   UNL     1      -2.179  -0.043 -29.685  1.00  0.00     0.051 A 
ATOM      8  C   UNL     1      -2.490   0.110 -28.335  1.00  0.00     0.012 A 
BRANCH   4   9
ATOM      9  O   UNL     1      -5.401  -0.825 -31.170  1.00  0.00    -0.493 OA
ATOM     10  C   UNL     1      -6.773  -0.909 -30.804  1.00  0.00     0.278 C 
ENDBRANCH   4   9
BRANCH   5  11
ATOM     11  O   UNL     1      -2.857  -0.505 -31.903  1.00  0.00    -0.504 OA
ATOM     12  H   UNL     1      -3.256   0.268 -32.349  1.00  0.00     0.293 HD
ENDBRANCH   5  11
ENDBRANCH   1   3
BRANCH   2  13
ATOM     13  C   UNL     1      -5.377  -0.395 -24.423  1.00  0.00     0.328 C 
ATOM     14  O   UNL     1      -6.156  -1.044 -23.748  1.00  0.00    -0.247 OA
BRANCH  13  15
ATOM     15  O   UNL     1      -4.699   0.670 -23.950  1.00  0.00    -0.478 OA
ATOM     16  H   UNL     1      -4.633   0.734 -22.981  1.00  0.00     0.297 HD
ENDBRANCH  13  15
ENDBRANCH   2  13
TORSDOF 5
ENDMDL
MODEL 5
REMARK VINA RESULT:      -6.1     17.596     20.625
REMARK SMILES COc1cc(/C=C/C(=O)O)ccc1O
REMARK SMILES IDX 6 1 7 2 5 3 3 4 13 5 4 6 12 7 11 8 2 9 1 10 14 11 8 13 9 14
REMARK SMILES IDX 10 15
REMARK H PARENT 14 12 10 16
ROOT
ATOM      1  C   UNL     1       7.762  -1.292 -19.084  1.00  0.00     0.016 C 
ATOM      2  C   UNL     1       6.503  -1.488 -19.507  1.00  0.00     0.094 C 
ENDROOT
BRANCH   1   3
ATOM      3  C   UNL     1       8.108  -0.460 -17.924  1.00  0.00    -0.021 A 
ATOM      4  C   UNL     1       9.653   0.019 -16.108  1.00  0.00     0.161 A 
ATOM      5  C   UNL     1       8.850   1.105 -15.747  1.00  0.00     0.157 A 
ATOM      6  C   UNL     1       9.279  -0.759 -17.205  1.00  0.00     0.058 A 
ATOM      7  C   UNL     1       7.700   1.427 -16.455  1.00  0.00     0.051 A 
ATOM      8  C   UNL     1       7.331   0.646 -17.549  1.00  0.00     0.012 A 
BRANCH   4   9
ATOM      9  O   UNL     1      10.758  -0.170 -15.319  1.00  0.00    -0.493 OA
ATOM     10  C   UNL     1      11.986   0.364 -15.801  1.00  0.00     0.278 C 
ENDBRANCH   4   9
BRANCH   5  11
ATOM     11  O   UNL     1       9.188   1.888 -14.676  1.00  0.00    -0.504 OA
ATOM     12  H   UNL     1      10.160   1.978 -14.728  1.00  0.00     0.293 HD
ENDBRANCH   5  11
ENDBRANCH   1   3
BRANCH   2  13
ATOM     13  C   UNL     1       6.262  -2.365 -20.670  1.00  0.00     0.328 C 
ATOM     14  O   UNL     1       5.612  -2.050 -21.651  1.00  0.00    -0.247 OA
BRANCH  13  15
ATOM     15  O   UNL     1       6.852  -3.568 -20.528  1.00  0.00    -0.478 OA
ATOM     16  H   UNL     1       6.681  -4.027 -19.686  1.00  0.00     0.297 HD
ENDBRANCH  13  15
ENDBRANCH   2  13
TORSDOF 5
ENDMDL
MODEL 6
REMARK VINA RESULT:      -6.0      1.843      5.750
REMARK SMILES COc1cc(/C=C/C(=O)O)ccc1O
REMARK SMILES IDX 6 1 7 2 5 3 3 4 13 5 4 6 12 7 11 8 2 9 1 10 14 11 8 13 9 14
REMARK SMILES IDX 10 15
REMARK H PARENT 14 12 10 16
ROOT
ATOM      1  C   UNL     1      -5.988   0.821 -31.964  1.00  0.00     0.016 C 
ATOM      2  C   UNL     1      -5.272   0.096 -31.090  1.00  0.00     0.094 C 
ENDROOT
BRANCH   1   3
ATOM      3  C   UNL     1      -7.398   0.555 -32.275  1.00  0.00    -0.021 A 
ATOM      4  C   UNL     1      -9.368  -0.829 -31.930  1.00  0.00     0.161 A 
ATOM      5  C   UNL     1     -10.081   0.021 -32.782  1.00  0.00     0.157 A 
ATOM      6  C   UNL     1      -8.023  -0.553 -31.676  1.00  0.00     0.058 A 
ATOM      7  C   UNL     1      -9.486   1.129 -33.369  1.00  0.00     0.051 A 
ATOM      8  C   UNL     1      -8.143   1.400 -33.110  1.00  0.00     0.012 A 
BRANCH   4   9
ATOM      9  O   UNL     1     -10.092  -1.877 -31.422  1.00  0.00    -0.493 OA
ATOM     10  C   UNL     1      -9.350  -2.925 -30.808  1.00  0.00     0.278 C 
ENDBRANCH   4   9
BRANCH   5  11
ATOM     11  O   UNL     1     -11.400  -0.222 -33.052  1.00  0.00    -0.504 OA
ATOM     12  H   UNL     1     -11.862  -0.082 -32.202  1.00  0.00     0.293 HD
ENDBRANCH   5  11
ENDBRANCH   1   3
BRANCH   2  13
ATOM     13  C   UNL     1      -3.866   0.464 -30.830  1.00  0.00     0.328 C 
ATOM     14  O   UNL     1      -3.418   0.754 -29.735  1.00  0.00    -0.247 OA
BRANCH  13  15
ATOM     15  O   UNL     1      -3.120   0.442 -31.952  1.00  0.00    -0.478 OA
ATOM     16  H   UNL     1      -2.892   1.311 -32.327  1.00  0.00     0.297 HD
ENDBRANCH  13  15
ENDBRANCH   2  13
TORSDOF 5
ENDMDL
MODEL 7
REMARK VINA RESULT:      -5.9      4.668      5.563
REMARK SMILES COc1cc(/C=C/C(=O)O)ccc1O
REMARK SMILES IDX 6 1 7 2 5 3 3 4 13 5 4 6 12 7 11 8 2 9 1 10 14 11 8 13 9 14
REMARK SMILES IDX 10 15
REMARK H PARENT 14 12 10 16
ROOT
ATOM      1  C   UNL     1      -9.637  -3.867 -30.453  1.00  0.00     0.016 C 
ATOM      2  C   UNL     1      -9.733  -4.797 -29.490  1.00  0.00     0.094 C 
ENDROOT
BRANCH   1   3
ATOM      3  C   UNL     1      -8.538  -2.897 -30.538  1.00  0.00    -0.021 A 
ATOM      4  C   UNL     1      -7.650  -0.855 -31.516  1.00  0.00     0.161 A 
ATOM      5  C   UNL     1      -6.515  -0.995 -30.712  1.00  0.00     0.157 A 
ATOM      6  C   UNL     1      -8.665  -1.810 -31.420  1.00  0.00     0.058 A 
ATOM      7  C   UNL     1      -6.379  -2.052 -29.823  1.00  0.00     0.051 A 
ATOM      8  C   UNL     1      -7.395  -3.002 -29.732  1.00  0.00     0.012 A 
BRANCH   4   9
ATOM      9  O   UNL     1      -7.644   0.241 -32.340  1.00  0.00    -0.493 OA
ATOM     10  C   UNL     1      -8.849   0.996 -32.408  1.00  0.00     0.278 C 
ENDBRANCH   4   9
BRANCH   5  11
ATOM     11  O   UNL     1      -5.502  -0.077 -30.783  1.00  0.00    -0.504 OA
ATOM     12  H   UNL     1      -5.452   0.311 -29.887  1.00  0.00     0.293 HD
ENDBRANCH   5  11
ENDBRANCH   1   3
BRANCH   2  13
ATOM     13  C   UNL     1     -10.867  -5.742 -29.511  1.00  0.00     0.328 C 
ATOM     14  O   UNL     1     -11.379  -6.232 -28.520  1.00  0.00    -0.247 OA
BRANCH  13  15
ATOM     15  O   UNL     1     -11.283  -6.007 -30.766  1.00  0.00    -0.478 OA
ATOM     16  H   UNL     1     -11.213  -5.270 -31.398  1.00  0.00     0.297 HD
ENDBRANCH  13  15
ENDBRANCH   2  13
TORSDOF 5
ENDMDL
MODEL 8
REMARK VINA RESULT:      -5.9     11.495     12.938
REMARK SMILES COc1cc(/C=C/C(=O)O)ccc1O
REMARK SMILES IDX 6 1 7 2 5 3 3 4 13 5 4 6 12 7 11 8 2 9 1 10 14 11 8 13 9 14
REMARK SMILES IDX 10 15
REMARK H PARENT 14 12 10 16
ROOT
ATOM      1  C   UNL     1      -4.587 -10.780 -27.401  1.00  0.00     0.016 C 
ATOM      2  C   UNL     1      -5.210 -11.222 -26.297  1.00  0.00     0.094 C 
ENDROOT
BRANCH   1   3
ATOM      3  C   UNL     1      -3.284 -10.102 -27.381  1.00  0.00    -0.021 A 
ATOM      4  C   UNL     1      -0.862 -10.276 -27.243  1.00  0.00     0.161 A 
ATOM      5  C   UNL     1      -0.782  -8.887 -27.386  1.00  0.00     0.157 A 
ATOM      6  C   UNL     1      -2.121 -10.880 -27.247  1.00  0.00     0.058 A 
ATOM      7  C   UNL     1      -1.918  -8.104 -27.538  1.00  0.00     0.051 A 
ATOM      8  C   UNL     1      -3.171  -8.713 -27.541  1.00  0.00     0.012 A 
BRANCH   4   9
ATOM      9  O   UNL     1       0.344 -10.914 -27.109  1.00  0.00    -0.493 OA
ATOM     10  C   UNL     1       0.557 -11.628 -25.897  1.00  0.00     0.278 C 
ENDBRANCH   4   9
BRANCH   5  11
ATOM     11  O   UNL     1       0.437  -8.263 -27.386  1.00  0.00    -0.504 OA
ATOM     12  H   UNL     1       0.472  -7.781 -26.536  1.00  0.00     0.293 HD
ENDBRANCH   5  11
ENDBRANCH   1   3
BRANCH   2  13
ATOM     13  C   UNL     1      -6.506 -11.915 -26.431  1.00  0.00     0.328 C 
ATOM     14  O   UNL     1      -6.847 -12.879 -25.768  1.00  0.00    -0.247 OA
BRANCH  13  15
ATOM     15  O   UNL     1      -7.286 -11.355 -27.377  1.00  0.00    -0.478 OA
ATOM     16  H   UNL     1      -8.232 -11.578 -27.332  1.00  0.00     0.297 HD
ENDBRANCH  13  15
ENDBRANCH   2  13
TORSDOF 5
ENDMDL
MODEL 9
REMARK VINA RESULT:      -5.8      1.487      2.597
REMARK SMILES COc1cc(/C=C/C(=O)O)ccc1O
REMARK SMILES IDX 6 1 7 2 5 3 3 4 13 5 4 6 12 7 11 8 2 9 1 10 14 11 8 13 9 14
REMARK SMILES IDX 10 15
REMARK H PARENT 14 12 10 16
ROOT
ATOM      1  C   UNL     1      -9.031  -0.597 -31.546  1.00  0.00     0.016 C 
ATOM      2  C   UNL     1      -9.244   0.354 -32.469  1.00  0.00     0.094 C 
ENDROOT
BRANCH   1   3
ATOM      3  C   UNL     1      -7.703  -0.925 -31.010  1.00  0.00    -0.021 A 
ATOM      4  C   UNL     1      -5.383  -0.271 -30.685  1.00  0.00     0.161 A 
ATOM      5  C   UNL     1      -5.176  -1.458 -29.976  1.00  0.00     0.157 A 
ATOM      6  C   UNL     1      -6.655  -0.006 -31.197  1.00  0.00     0.058 A 
ATOM      7  C   UNL     1      -6.202  -2.369 -29.767  1.00  0.00     0.051 A 
ATOM      8  C   UNL     1      -7.469  -2.099 -30.280  1.00  0.00     0.012 A 
BRANCH   4   9
ATOM      9  O   UNL     1      -4.277   0.531 -30.806  1.00  0.00    -0.493 OA
ATOM     10  C   UNL     1      -4.272   1.731 -30.039  1.00  0.00     0.278 C 
ENDBRANCH   4   9
BRANCH   5  11
ATOM     11  O   UNL     1      -3.941  -1.748 -29.463  1.00  0.00    -0.504 OA
ATOM     12  H   UNL     1      -4.062  -2.586 -28.974  1.00  0.00     0.293 HD
ENDBRANCH   5  11
ENDBRANCH   1   3
BRANCH   2  13
ATOM     13  C   UNL     1     -10.622   0.622 -32.923  1.00  0.00     0.328 C 
ATOM     14  O   UNL     1     -11.450  -0.238 -33.167  1.00  0.00    -0.247 OA
BRANCH  13  15
ATOM     15  O   UNL     1     -10.871   1.941 -33.036  1.00  0.00    -0.478 OA
ATOM     16  H   UNL     1     -11.575   2.290 -32.461  1.00  0.00     0.297 HD
ENDBRANCH  13  15
ENDBRANCH   2  13
TORSDOF 5
ENDMDL
MODEL 10
REMARK VINA RESULT:      -5.7      3.542      4.704
REMARK SMILES COc1cc(/C=C/C(=O)O)ccc1O
REMARK SMILES IDX 6 1 7 2 5 3 3 4 13 5 4 6 12 7 11 8 2 9 1 10 14 11 8 13 9 14
REMARK SMILES IDX 10 15
REMARK H PARENT 14 12 10 16
ROOT
ATOM      1  C   UNL     1      -7.125  -2.808 -29.503  1.00  0.00     0.016 C 
ATOM      2  C   UNL     1      -7.875  -3.649 -30.232  1.00  0.00     0.094 C 
ENDROOT
BRANCH   1   3
ATOM      3  C   UNL     1      -6.248  -1.786 -30.090  1.00  0.00    -0.021 A 
ATOM      4  C   UNL     1      -6.018   0.175 -31.511  1.00  0.00     0.161 A 
ATOM      5  C   UNL     1      -4.655   0.208 -31.198  1.00  0.00     0.157 A 
ATOM      6  C   UNL     1      -6.813  -0.825 -30.947  1.00  0.00     0.058 A 
ATOM      7  C   UNL     1      -4.083  -0.722 -30.340  1.00  0.00     0.051 A 
ATOM      8  C   UNL     1      -4.882  -1.717 -29.781  1.00  0.00     0.012 A 
BRANCH   4   9
ATOM      9  O   UNL     1      -6.438   1.160 -32.366  1.00  0.00    -0.493 OA
ATOM     10  C   UNL     1      -7.831   1.202 -32.656  1.00  0.00     0.278 C 
ENDBRANCH   4   9
BRANCH   5  11
ATOM     11  O   UNL     1      -3.848   1.174 -31.734  1.00  0.00    -0.504 OA
ATOM     12  H   UNL     1      -4.413   1.646 -32.377  1.00  0.00     0.293 HD
ENDBRANCH   5  11
ENDBRANCH   1   3
BRANCH   2  13
ATOM     13  C   UNL     1      -8.743  -4.623 -29.541  1.00  0.00     0.328 C 
ATOM     14  O   UNL     1      -9.426  -5.461 -30.102  1.00  0.00    -0.247 OA
BRANCH  13  15
ATOM     15  O   UNL     1      -8.693  -4.485 -28.201  1.00  0.00    -0.478 OA
ATOM     16  H   UNL     1      -7.803  -4.395 -27.818  1.00  0.00     0.297 HD
ENDBRANCH  13  15
ENDBRANCH   2  13
TORSDOF 5
ENDMDL
