MODEL 1
REMARK VINA RESULT:      -8.1      0.000      0.000
REMARK SMILES O=C(C=Cc1ccc(O)c(O)c1)O[C@@H](Cc1ccc(O)c(O)c1)C(=O)O
REMARK SMILES IDX 13 1 14 2 15 3 16 4 17 5 18 6 19 7 23 8 21 9 20 10 22 12
REMARK SMILES IDX 24 14 25 15 26 16 2 18 1 19 3 20 4 21 5 22 12 23 6 24 10 25
REMARK SMILES IDX 7 26 8 27 11 28 9 30
REMARK H PARENT 20 11 22 13 26 17 11 29 9 31
ROOT
ATOM      1  O   UNL     1      -9.053  -1.348 -32.379  1.00  0.00    -0.447 OA
ENDROOT
BRANCH   1   2
ATOM      2  C   UNL     1      -9.331   0.063 -32.228  1.00  0.00     0.290 C 
BRANCH   2   3
ATOM      3  C   UNL     1      -8.344   0.932 -33.021  1.00  0.00     0.093 C 
BRANCH   3   4
ATOM      4  C   UNL     1      -7.154   1.398 -32.209  1.00  0.00    -0.040 A 
ATOM      5  C   UNL     1      -7.340   2.196 -31.066  1.00  0.00     0.008 A 
ATOM      6  C   UNL     1      -6.245   2.660 -30.330  1.00  0.00     0.050 A 
ATOM      7  C   UNL     1      -4.961   2.325 -30.741  1.00  0.00     0.157 A 
ATOM      8  C   UNL     1      -5.851   1.064 -32.603  1.00  0.00     0.054 A 
ATOM      9  C   UNL     1      -4.770   1.534 -31.871  1.00  0.00     0.157 A 
BRANCH   7  10
ATOM     10  O   UNL     1      -3.851   2.752 -30.069  1.00  0.00    -0.504 OA
ATOM     11  H   UNL     1      -3.713   3.692 -30.280  1.00  0.00     0.293 HD
ENDBRANCH   7  10
BRANCH   9  12
ATOM     12  O   UNL     1      -3.506   1.215 -32.275  1.00  0.00    -0.504 OA
ATOM     13  H   UNL     1      -2.931   1.527 -31.546  1.00  0.00     0.293 HD
ENDBRANCH   9  12
ENDBRANCH   3   4
ENDBRANCH   2   3
BRANCH   2  14
ATOM     14  C   UNL     1     -10.763   0.334 -32.682  1.00  0.00     0.345 C 
ATOM     15  O   UNL     1     -11.625  -0.526 -32.795  1.00  0.00    -0.248 OA
BRANCH  14  16
ATOM     16  O   UNL     1     -11.006   1.642 -32.944  1.00  0.00    -0.478 OA
ATOM     17  H   UNL     1     -11.621   2.008 -32.273  1.00  0.00     0.296 HD
ENDBRANCH  14  16
ENDBRANCH   2  14
ENDBRANCH   1   2
BRANCH   1  18
ATOM     18  C   UNL     1      -9.011  -2.045 -31.216  1.00  0.00     0.331 C 
ATOM     19  O   UNL     1      -9.700  -3.007 -30.927  1.00  0.00    -0.247 OA
BRANCH  18  20
ATOM     20  C   UNL     1      -7.991  -1.427 -30.346  1.00  0.00     0.094 C 
ATOM     21  C   UNL     1      -6.715  -1.834 -30.430  1.00  0.00     0.016 C 
BRANCH  21  22
ATOM     22  C   UNL     1      -5.627  -1.277 -29.614  1.00  0.00    -0.021 A 
ATOM     23  C   UNL     1      -5.955  -0.449 -28.529  1.00  0.00     0.058 A 
ATOM     24  C   UNL     1      -4.273  -1.505 -29.919  1.00  0.00     0.012 A 
ATOM     25  C   UNL     1      -4.941   0.108 -27.756  1.00  0.00     0.157 A 
ATOM     26  C   UNL     1      -3.261  -0.942 -29.136  1.00  0.00     0.051 A 
ATOM     27  C   UNL     1      -3.606  -0.143 -28.058  1.00  0.00     0.157 A 
BRANCH  25  28
ATOM     28  O   UNL     1      -5.208   0.914 -26.684  1.00  0.00    -0.504 OA
ATOM     29  H   UNL     1      -6.153   0.834 -26.469  1.00  0.00     0.293 HD
ENDBRANCH  25  28
BRANCH  27  30
ATOM     30  O   UNL     1      -2.617   0.408 -27.294  1.00  0.00    -0.504 OA
ATOM     31  H   UNL     1      -2.862   0.181 -26.375  1.00  0.00     0.293 HD
ENDBRANCH  27  30
ENDBRANCH  21  22
ENDBRANCH  18  20
ENDBRANCH   1  18
TORSDOF 12
ENDMDL
MODEL 2
REMARK VINA RESULT:      -7.9      0.555      1.282
REMARK SMILES O=C(C=Cc1ccc(O)c(O)c1)O[C@@H](Cc1ccc(O)c(O)c1)C(=O)O
REMARK SMILES IDX 13 1 14 2 15 3 16 4 17 5 18 6 19 7 23 8 21 9 20 10 22 12
REMARK SMILES IDX 24 14 25 15 26 16 2 18 1 19 3 20 4 21 5 22 12 23 6 24 10 25
REMARK SMILES IDX 7 26 8 27 11 28 9 30
REMARK H PARENT 20 11 22 13 26 17 11 29 9 31
ROOT
ATOM      1  O   UNL     1      -9.045  -1.357 -32.411  1.00  0.00    -0.447 OA
ENDROOT
BRANCH   1   2
ATOM      2  C   UNL     1      -9.352   0.044 -32.223  1.00  0.00     0.290 C 
BRANCH   2   3
ATOM      3  C   UNL     1      -8.389   0.953 -33.002  1.00  0.00     0.093 C 
BRANCH   3   4
ATOM      4  C   UNL     1      -7.197   1.415 -32.190  1.00  0.00    -0.040 A 
ATOM      5  C   UNL     1      -7.381   2.190 -31.031  1.00  0.00     0.008 A 
ATOM      6  C   UNL     1      -6.285   2.650 -30.295  1.00  0.00     0.050 A 
ATOM      7  C   UNL     1      -5.001   2.335 -30.723  1.00  0.00     0.157 A 
ATOM      8  C   UNL     1      -5.894   1.101 -32.600  1.00  0.00     0.054 A 
ATOM      9  C   UNL     1      -4.812   1.567 -31.868  1.00  0.00     0.157 A 
BRANCH   7  10
ATOM     10  O   UNL     1      -3.890   2.761 -30.051  1.00  0.00    -0.504 OA
ATOM     11  H   UNL     1      -3.944   3.728 -29.960  1.00  0.00     0.293 HD
ENDBRANCH   7  10
BRANCH   9  12
ATOM     12  O   UNL     1      -3.548   1.268 -32.288  1.00  0.00    -0.504 OA
ATOM     13  H   UNL     1      -3.679   0.803 -33.140  1.00  0.00     0.293 HD
ENDBRANCH   9  12
ENDBRANCH   3   4
ENDBRANCH   2   3
BRANCH   2  14
ATOM     14  C   UNL     1     -10.793   0.296 -32.659  1.00  0.00     0.345 C 
ATOM     15  O   UNL     1     -11.657  -0.567 -32.715  1.00  0.00    -0.248 OA
BRANCH  14  16
ATOM     16  O   UNL     1     -11.040   1.591 -32.975  1.00  0.00    -0.478 OA
ATOM     17  H   UNL     1     -11.210   2.107 -32.158  1.00  0.00     0.296 HD
ENDBRANCH  14  16
ENDBRANCH   2  14
ENDBRANCH   1   2
BRANCH   1  18
ATOM     18  C   UNL     1      -9.068  -2.099 -31.275  1.00  0.00     0.331 C 
ATOM     19  O   UNL     1      -9.669  -3.145 -31.110  1.00  0.00    -0.247 OA
BRANCH  18  20
ATOM     20  C   UNL     1      -8.245  -1.412 -30.261  1.00  0.00     0.094 C 
ATOM     21  C   UNL     1      -6.916  -1.596 -30.250  1.00  0.00     0.016 C 
BRANCH  21  22
ATOM     22  C   UNL     1      -6.012  -0.953 -29.287  1.00  0.00    -0.021 A 
ATOM     23  C   UNL     1      -4.626  -1.071 -29.481  1.00  0.00     0.058 A 
ATOM     24  C   UNL     1      -6.490  -0.271 -28.155  1.00  0.00     0.012 A 
ATOM     25  C   UNL     1      -3.750  -0.489 -28.570  1.00  0.00     0.157 A 
ATOM     26  C   UNL     1      -5.603   0.312 -27.245  1.00  0.00     0.051 A 
ATOM     27  C   UNL     1      -4.239   0.200 -27.465  1.00  0.00     0.157 A 
BRANCH  25  28
ATOM     28  O   UNL     1      -2.393  -0.569 -28.719  1.00  0.00    -0.504 OA
ATOM     29  H   UNL     1      -2.119   0.084 -29.386  1.00  0.00     0.293 HD
ENDBRANCH  25  28
BRANCH  27  30
ATOM     30  O   UNL     1      -3.372   0.768 -26.576  1.00  0.00    -0.504 OA
ATOM     31  H   UNL     1      -2.942   0.009 -26.134  1.00  0.00     0.293 HD
ENDBRANCH  27  30
ENDBRANCH  21  22
ENDBRANCH  18  20
ENDBRANCH   1  18
TORSDOF 12
ENDMDL
MODEL 3
REMARK VINA RESULT:      -7.8      2.212      6.150
REMARK SMILES O=C(C=Cc1ccc(O)c(O)c1)O[C@@H](Cc1ccc(O)c(O)c1)C(=O)O
REMARK SMILES IDX 13 1 14 2 15 3 16 4 17 5 18 6 19 7 23 8 21 9 20 10 22 12
REMARK SMILES IDX 24 14 25 15 26 16 2 18 1 19 3 20 4 21 5 22 12 23 6 24 10 25
REMARK SMILES IDX 7 26 8 27 11 28 9 30
REMARK H PARENT 20 11 22 13 26 17 11 29 9 31
ROOT
ATOM      1  O   UNL     1      -5.439   0.044 -29.637  1.00  0.00    -0.447 OA
ENDROOT
BRANCH   1   2
ATOM      2  C   UNL     1      -5.417   0.030 -31.082  1.00  0.00     0.290 C 
BRANCH   2   3
ATOM      3  C   UNL     1      -6.253   1.172 -31.681  1.00  0.00     0.093 C 
BRANCH   3   4
ATOM      4  C   UNL     1      -7.657   0.759 -32.070  1.00  0.00    -0.040 A 
ATOM      5  C   UNL     1      -7.972   0.480 -33.412  1.00  0.00     0.008 A 
ATOM      6  C   UNL     1      -9.274   0.132 -33.785  1.00  0.00     0.050 A 
ATOM      7  C   UNL     1     -10.263   0.067 -32.812  1.00  0.00     0.157 A 
ATOM      8  C   UNL     1      -8.668   0.680 -31.102  1.00  0.00     0.054 A 
ATOM      9  C   UNL     1      -9.958   0.341 -31.482  1.00  0.00     0.157 A 
BRANCH   7  10
ATOM     10  O   UNL     1     -11.555  -0.260 -33.114  1.00  0.00    -0.504 OA
ATOM     11  H   UNL     1     -11.932   0.460 -33.648  1.00  0.00     0.293 HD
ENDBRANCH   7  10
BRANCH   9  12
ATOM     12  O   UNL     1     -10.936   0.283 -30.531  1.00  0.00    -0.504 OA
ATOM     13  H   UNL     1     -11.527   1.035 -30.744  1.00  0.00     0.293 HD
ENDBRANCH   9  12
ENDBRANCH   3   4
ENDBRANCH   2   3
BRANCH   2  14
ATOM     14  C   UNL     1      -3.969   0.127 -31.554  1.00  0.00     0.345 C 
ATOM     15  O   UNL     1      -3.146  -0.771 -31.443  1.00  0.00    -0.248 OA
BRANCH  14  16
ATOM     16  O   UNL     1      -3.669   1.318 -32.131  1.00  0.00    -0.478 OA
ATOM     17  H   UNL     1      -3.281   1.169 -33.020  1.00  0.00     0.296 HD
ENDBRANCH  14  16
ENDBRANCH   2  14
ENDBRANCH   1   2
BRANCH   1  18
ATOM     18  C   UNL     1      -5.148  -1.148 -29.055  1.00  0.00     0.331 C 
ATOM     19  O   UNL     1      -4.230  -1.370 -28.288  1.00  0.00    -0.247 OA
BRANCH  18  20
ATOM     20  C   UNL     1      -6.133  -2.141 -29.525  1.00  0.00     0.094 C 
ATOM     21  C   UNL     1      -7.324  -2.235 -28.912  1.00  0.00     0.016 C 
BRANCH  21  22
ATOM     22  C   UNL     1      -8.373  -3.185 -29.309  1.00  0.00    -0.021 A 
ATOM     23  C   UNL     1      -8.551  -4.349 -28.545  1.00  0.00     0.058 A 
ATOM     24  C   UNL     1      -9.162  -2.988 -30.456  1.00  0.00     0.012 A 
ATOM     25  C   UNL     1      -9.523  -5.273 -28.915  1.00  0.00     0.157 A 
ATOM     26  C   UNL     1     -10.136  -3.922 -30.819  1.00  0.00     0.051 A 
ATOM     27  C   UNL     1     -10.310  -5.056 -30.041  1.00  0.00     0.157 A 
BRANCH  25  28
ATOM     28  O   UNL     1      -9.741  -6.419 -28.199  1.00  0.00    -0.504 OA
ATOM     29  H   UNL     1      -9.541  -6.238 -27.264  1.00  0.00     0.293 HD
ENDBRANCH  25  28
BRANCH  27  30
ATOM     30  O   UNL     1     -11.261  -5.969 -30.396  1.00  0.00    -0.504 OA
ATOM     31  H   UNL     1     -11.607  -5.643 -31.251  1.00  0.00     0.293 HD
ENDBRANCH  27  30
ENDBRANCH  21  22
ENDBRANCH  18  20
ENDBRANCH   1  18
TORSDOF 12
ENDMDL
MODEL 4
REMARK VINA RESULT:      -7.8      1.798      3.640
REMARK SMILES O=C(C=Cc1ccc(O)c(O)c1)O[C@@H](Cc1ccc(O)c(O)c1)C(=O)O
REMARK SMILES IDX 13 1 14 2 15 3 16 4 17 5 18 6 19 7 23 8 21 9 20 10 22 12
REMARK SMILES IDX 24 14 25 15 26 16 2 18 1 19 3 20 4 21 5 22 12 23 6 24 10 25
REMARK SMILES IDX 7 26 8 27 11 28 9 30
REMARK H PARENT 20 11 22 13 26 17 11 29 9 31
ROOT
ATOM      1  O   UNL     1      -8.569   1.438 -31.944  1.00  0.00    -0.447 OA
ENDROOT
BRANCH   1   2
ATOM      2  C   UNL     1      -9.366   0.241 -32.088  1.00  0.00     0.290 C 
BRANCH   2   3
ATOM      3  C   UNL     1      -9.804  -0.326 -30.729  1.00  0.00     0.093 C 
BRANCH   3   4
ATOM      4  C   UNL     1      -8.666  -0.903 -29.914  1.00  0.00    -0.040 A 
ATOM      5  C   UNL     1      -8.055  -2.110 -30.297  1.00  0.00     0.008 A 
ATOM      6  C   UNL     1      -7.027  -2.668 -29.531  1.00  0.00     0.050 A 
ATOM      7  C   UNL     1      -6.611  -2.016 -28.378  1.00  0.00     0.157 A 
ATOM      8  C   UNL     1      -8.226  -0.255 -28.751  1.00  0.00     0.054 A 
ATOM      9  C   UNL     1      -7.210  -0.820 -27.993  1.00  0.00     0.157 A 
BRANCH   7  10
ATOM     10  O   UNL     1      -5.616  -2.513 -27.584  1.00  0.00    -0.504 OA
ATOM     11  H   UNL     1      -5.877  -2.383 -26.656  1.00  0.00     0.293 HD
ENDBRANCH   7  10
BRANCH   9  12
ATOM     12  O   UNL     1      -6.802  -0.187 -26.854  1.00  0.00    -0.504 OA
ATOM     13  H   UNL     1      -7.468  -0.442 -26.183  1.00  0.00     0.293 HD
ENDBRANCH   9  12
ENDBRANCH   3   4
ENDBRANCH   2   3
BRANCH   2  14
ATOM     14  C   UNL     1     -10.585   0.562 -32.949  1.00  0.00     0.345 C 
ATOM     15  O   UNL     1     -11.216  -0.268 -33.587  1.00  0.00    -0.248 OA
BRANCH  14  16
ATOM     16  O   UNL     1     -10.922   1.875 -32.936  1.00  0.00    -0.478 OA
ATOM     17  H   UNL     1     -11.627   2.045 -33.597  1.00  0.00     0.296 HD
ENDBRANCH  14  16
ENDBRANCH   2  14
ENDBRANCH   1   2
BRANCH   1  18
ATOM     18  C   UNL     1      -7.388   1.416 -32.612  1.00  0.00     0.331 C 
ATOM     19  O   UNL     1      -7.241   1.257 -33.810  1.00  0.00    -0.247 OA
BRANCH  18  20
ATOM     20  C   UNL     1      -6.301   1.604 -31.632  1.00  0.00     0.094 C 
ATOM     21  C   UNL     1      -5.619   0.538 -31.185  1.00  0.00     0.016 C 
BRANCH  21  22
ATOM     22  C   UNL     1      -4.516   0.622 -30.217  1.00  0.00    -0.021 A 
ATOM     23  C   UNL     1      -4.319   1.828 -29.525  1.00  0.00     0.058 A 
ATOM     24  C   UNL     1      -3.627  -0.445 -30.005  1.00  0.00     0.012 A 
ATOM     25  C   UNL     1      -3.269   1.938 -28.619  1.00  0.00     0.157 A 
ATOM     26  C   UNL     1      -2.575  -0.325 -29.092  1.00  0.00     0.051 A 
ATOM     27  C   UNL     1      -2.408   0.866 -28.405  1.00  0.00     0.157 A 
BRANCH  25  28
ATOM     28  O   UNL     1      -3.039   3.087 -27.914  1.00  0.00    -0.504 OA
ATOM     29  H   UNL     1      -3.409   2.977 -27.021  1.00  0.00     0.293 HD
ENDBRANCH  25  28
BRANCH  27  30
ATOM     30  O   UNL     1      -1.379   0.984 -27.515  1.00  0.00    -0.504 OA
ATOM     31  H   UNL     1      -0.614   1.259 -28.059  1.00  0.00     0.293 HD
ENDBRANCH  27  30
ENDBRANCH  21  22
ENDBRANCH  18  20
ENDBRANCH   1  18
TORSDOF 12
ENDMDL
MODEL 5
REMARK VINA RESULT:      -7.8      1.822      6.918
REMARK SMILES O=C(C=Cc1ccc(O)c(O)c1)O[C@@H](Cc1ccc(O)c(O)c1)C(=O)O
REMARK SMILES IDX 13 1 14 2 15 3 16 4 17 5 18 6 19 7 23 8 21 9 20 10 22 12
REMARK SMILES IDX 24 14 25 15 26 16 2 18 1 19 3 20 4 21 5 22 12 23 6 24 10 25
REMARK SMILES IDX 7 26 8 27 11 28 9 30
REMARK H PARENT 20 11 22 13 26 17 11 29 9 31
ROOT
ATOM      1  O   UNL     1      -4.465   1.290 -29.537  1.00  0.00    -0.447 OA
ENDROOT
BRANCH   1   2
ATOM      2  C   UNL     1      -3.079   0.931 -29.738  1.00  0.00     0.290 C 
BRANCH   2   3
ATOM      3  C   UNL     1      -2.462   0.295 -28.483  1.00  0.00     0.093 C 
BRANCH   3   4
ATOM      4  C   UNL     1      -3.484  -0.286 -27.529  1.00  0.00    -0.040 A 
ATOM      5  C   UNL     1      -4.142  -1.490 -27.836  1.00  0.00     0.008 A 
ATOM      6  C   UNL     1      -5.113  -2.016 -26.978  1.00  0.00     0.050 A 
ATOM      7  C   UNL     1      -5.427  -1.332 -25.811  1.00  0.00     0.157 A 
ATOM      8  C   UNL     1      -3.809   0.385 -26.342  1.00  0.00     0.054 A 
ATOM      9  C   UNL     1      -4.778  -0.140 -25.499  1.00  0.00     0.157 A 
BRANCH   7  10
ATOM     10  O   UNL     1      -6.371  -1.790 -24.935  1.00  0.00    -0.504 OA
ATOM     11  H   UNL     1      -7.155  -1.220 -25.012  1.00  0.00     0.293 HD
ENDBRANCH   7  10
BRANCH   9  12
ATOM     12  O   UNL     1      -5.096   0.532 -24.354  1.00  0.00    -0.504 OA
ATOM     13  H   UNL     1      -4.444   1.261 -24.311  1.00  0.00     0.293 HD
ENDBRANCH   9  12
ENDBRANCH   3   4
ENDBRANCH   2   3
BRANCH   2  14
ATOM     14  C   UNL     1      -2.986  -0.027 -30.922  1.00  0.00     0.345 C 
ATOM     15  O   UNL     1      -3.870  -0.804 -31.252  1.00  0.00    -0.248 OA
BRANCH  14  16
ATOM     16  O   UNL     1      -1.815   0.068 -31.600  1.00  0.00    -0.478 OA
ATOM     17  H   UNL     1      -1.127  -0.471 -31.154  1.00  0.00     0.296 HD
ENDBRANCH  14  16
ENDBRANCH   2  14
ENDBRANCH   1   2
BRANCH   1  18
ATOM     18  C   UNL     1      -4.879   2.371 -30.246  1.00  0.00     0.331 C 
ATOM     19  O   UNL     1      -4.328   3.456 -30.293  1.00  0.00    -0.247 OA
BRANCH  18  20
ATOM     20  C   UNL     1      -6.127   2.011 -30.946  1.00  0.00     0.094 C 
ATOM     21  C   UNL     1      -6.865   0.983 -30.500  1.00  0.00     0.016 C 
BRANCH  21  22
ATOM     22  C   UNL     1      -8.124   0.552 -31.123  1.00  0.00    -0.021 A 
ATOM     23  C   UNL     1      -8.916   1.512 -31.774  1.00  0.00     0.058 A 
ATOM     24  C   UNL     1      -8.582  -0.774 -31.041  1.00  0.00     0.012 A 
ATOM     25  C   UNL     1     -10.123   1.132 -32.351  1.00  0.00     0.157 A 
ATOM     26  C   UNL     1      -9.796  -1.147 -31.625  1.00  0.00     0.051 A 
ATOM     27  C   UNL     1     -10.554  -0.189 -32.279  1.00  0.00     0.157 A 
BRANCH  25  28
ATOM     28  O   UNL     1     -10.927   2.027 -33.003  1.00  0.00    -0.504 OA
ATOM     29  H   UNL     1     -11.665   1.538 -33.407  1.00  0.00     0.293 HD
ENDBRANCH  25  28
BRANCH  27  30
ATOM     30  O   UNL     1     -11.741  -0.553 -32.849  1.00  0.00    -0.504 OA
ATOM     31  H   UNL     1     -12.060   0.259 -33.291  1.00  0.00     0.293 HD
ENDBRANCH  27  30
ENDBRANCH  21  22
ENDBRANCH  18  20
ENDBRANCH   1  18
TORSDOF 12
ENDMDL
MODEL 6
REMARK VINA RESULT:      -7.7      2.559      6.347
REMARK SMILES O=C(C=Cc1ccc(O)c(O)c1)O[C@@H](Cc1ccc(O)c(O)c1)C(=O)O
REMARK SMILES IDX 13 1 14 2 15 3 16 4 17 5 18 6 19 7 23 8 21 9 20 10 22 12
REMARK SMILES IDX 24 14 25 15 26 16 2 18 1 19 3 20 4 21 5 22 12 23 6 24 10 25
REMARK SMILES IDX 7 26 8 27 11 28 9 30
REMARK H PARENT 20 11 22 13 26 17 11 29 9 31
ROOT
ATOM      1  O   UNL     1      -6.065  -0.331 -29.557  1.00  0.00    -0.447 OA
ENDROOT
BRANCH   1   2
ATOM      2  C   UNL     1      -5.540   0.668 -30.461  1.00  0.00     0.290 C 
BRANCH   2   3
ATOM      3  C   UNL     1      -6.584   1.743 -30.799  1.00  0.00     0.093 C 
BRANCH   3   4
ATOM      4  C   UNL     1      -7.765   1.218 -31.587  1.00  0.00    -0.040 A 
ATOM      5  C   UNL     1      -7.679   1.062 -32.982  1.00  0.00     0.008 A 
ATOM      6  C   UNL     1      -8.776   0.612 -33.722  1.00  0.00     0.050 A 
ATOM      7  C   UNL     1      -9.964   0.319 -33.064  1.00  0.00     0.157 A 
ATOM      8  C   UNL     1      -8.970   0.909 -30.940  1.00  0.00     0.054 A 
ATOM      9  C   UNL     1     -10.056   0.469 -31.683  1.00  0.00     0.157 A 
BRANCH   7  10
ATOM     10  O   UNL     1     -11.073  -0.119 -33.732  1.00  0.00    -0.504 OA
ATOM     11  H   UNL     1     -11.277  -1.017 -33.420  1.00  0.00     0.293 HD
ENDBRANCH   7  10
BRANCH   9  12
ATOM     12  O   UNL     1     -11.228   0.187 -31.043  1.00  0.00    -0.504 OA
ATOM     13  H   UNL     1     -11.890   0.759 -31.484  1.00  0.00     0.293 HD
ENDBRANCH   9  12
ENDBRANCH   3   4
ENDBRANCH   2   3
BRANCH   2  14
ATOM     14  C   UNL     1      -4.305   1.304 -29.829  1.00  0.00     0.345 C 
ATOM     15  O   UNL     1      -4.340   2.222 -29.022  1.00  0.00    -0.248 OA
BRANCH  14  16
ATOM     16  O   UNL     1      -3.141   0.743 -30.239  1.00  0.00    -0.478 OA
ATOM     17  H   UNL     1      -2.546   0.608 -29.470  1.00  0.00     0.296 HD
ENDBRANCH  14  16
ENDBRANCH   2  14
ENDBRANCH   1   2
BRANCH   1  18
ATOM     18  C   UNL     1      -5.651  -1.599 -29.812  1.00  0.00     0.331 C 
ATOM     19  O   UNL     1      -4.648  -1.920 -30.424  1.00  0.00    -0.247 OA
BRANCH  18  20
ATOM     20  C   UNL     1      -6.637  -2.530 -29.231  1.00  0.00     0.094 C 
ATOM     21  C   UNL     1      -7.828  -2.692 -29.827  1.00  0.00     0.016 C 
BRANCH  21  22
ATOM     22  C   UNL     1      -8.872  -3.600 -29.331  1.00  0.00    -0.021 A 
ATOM     23  C   UNL     1      -9.559  -4.404 -30.255  1.00  0.00     0.058 A 
ATOM     24  C   UNL     1      -9.237  -3.647 -27.975  1.00  0.00     0.012 A 
ATOM     25  C   UNL     1     -10.566  -5.255 -29.812  1.00  0.00     0.157 A 
ATOM     26  C   UNL     1     -10.250  -4.506 -27.539  1.00  0.00     0.051 A 
ATOM     27  C   UNL     1     -10.903  -5.306 -28.462  1.00  0.00     0.157 A 
BRANCH  25  28
ATOM     28  O   UNL     1     -11.259  -6.065 -30.669  1.00  0.00    -0.504 OA
ATOM     29  H   UNL     1     -10.624  -6.483 -31.276  1.00  0.00     0.293 HD
ENDBRANCH  25  28
BRANCH  27  30
ATOM     30  O   UNL     1     -11.893  -6.144 -28.037  1.00  0.00    -0.504 OA
ATOM     31  H   UNL     1     -11.450  -7.007 -27.915  1.00  0.00     0.293 HD
ENDBRANCH  27  30
ENDBRANCH  21  22
ENDBRANCH  18  20
ENDBRANCH   1  18
TORSDOF 12
ENDMDL
MODEL 7
REMARK VINA RESULT:      -7.6      0.679      1.376
REMARK SMILES O=C(C=Cc1ccc(O)c(O)c1)O[C@@H](Cc1ccc(O)c(O)c1)C(=O)O
REMARK SMILES IDX 13 1 14 2 15 3 16 4 17 5 18 6 19 7 23 8 21 9 20 10 22 12
REMARK SMILES IDX 24 14 25 15 26 16 2 18 1 19 3 20 4 21 5 22 12 23 6 24 10 25
REMARK SMILES IDX 7 26 8 27 11 28 9 30
REMARK H PARENT 20 11 22 13 26 17 11 29 9 31
ROOT
ATOM      1  O   UNL     1      -8.784  -1.094 -32.255  1.00  0.00    -0.447 OA
ENDROOT
BRANCH   1   2
ATOM      2  C   UNL     1      -9.139   0.305 -32.172  1.00  0.00     0.290 C 
BRANCH   2   3
ATOM      3  C   UNL     1      -8.170   1.193 -32.967  1.00  0.00     0.093 C 
BRANCH   3   4
ATOM      4  C   UNL     1      -6.969   1.653 -32.168  1.00  0.00    -0.040 A 
ATOM      5  C   UNL     1      -5.666   1.420 -32.641  1.00  0.00     0.008 A 
ATOM      6  C   UNL     1      -4.551   1.809 -31.892  1.00  0.00     0.050 A 
ATOM      7  C   UNL     1      -4.742   2.431 -30.665  1.00  0.00     0.157 A 
ATOM      8  C   UNL     1      -7.142   2.289 -30.931  1.00  0.00     0.054 A 
ATOM      9  C   UNL     1      -6.030   2.666 -30.191  1.00  0.00     0.157 A 
BRANCH   7  10
ATOM     10  O   UNL     1      -3.694   2.828 -29.884  1.00  0.00    -0.504 OA
ATOM     11  H   UNL     1      -3.044   2.105 -29.861  1.00  0.00     0.293 HD
ENDBRANCH   7  10
BRANCH   9  12
ATOM     12  O   UNL     1      -6.212   3.270 -28.980  1.00  0.00    -0.504 OA
ATOM     13  H   UNL     1      -5.554   3.995 -28.969  1.00  0.00     0.293 HD
ENDBRANCH   9  12
ENDBRANCH   3   4
ENDBRANCH   2   3
BRANCH   2  14
ATOM     14  C   UNL     1     -10.566   0.482 -32.685  1.00  0.00     0.345 C 
ATOM     15  O   UNL     1     -11.334  -0.441 -32.918  1.00  0.00    -0.248 OA
BRANCH  14  16
ATOM     16  O   UNL     1     -10.922   1.780 -32.851  1.00  0.00    -0.478 OA
ATOM     17  H   UNL     1     -11.685   1.841 -33.465  1.00  0.00     0.296 HD
ENDBRANCH  14  16
ENDBRANCH   2  14
ENDBRANCH   1   2
BRANCH   1  18
ATOM     18  C   UNL     1      -8.768  -1.745 -31.064  1.00  0.00     0.331 C 
ATOM     19  O   UNL     1      -9.517  -2.643 -30.725  1.00  0.00    -0.247 OA
BRANCH  18  20
ATOM     20  C   UNL     1      -7.691  -1.168 -30.238  1.00  0.00     0.094 C 
ATOM     21  C   UNL     1      -6.431  -1.605 -30.391  1.00  0.00     0.016 C 
BRANCH  21  22
ATOM     22  C   UNL     1      -5.290  -1.088 -29.622  1.00  0.00    -0.021 A 
ATOM     23  C   UNL     1      -5.542  -0.390 -28.430  1.00  0.00     0.058 A 
ATOM     24  C   UNL     1      -3.965  -1.227 -30.070  1.00  0.00     0.012 A 
ATOM     25  C   UNL     1      -4.479   0.127 -27.697  1.00  0.00     0.157 A 
ATOM     26  C   UNL     1      -2.903  -0.705 -29.326  1.00  0.00     0.051 A 
ATOM     27  C   UNL     1      -3.171  -0.035 -28.143  1.00  0.00     0.157 A 
BRANCH  25  28
ATOM     28  O   UNL     1      -4.670   0.808 -26.527  1.00  0.00    -0.504 OA
ATOM     29  H   UNL     1      -5.580   0.646 -26.224  1.00  0.00     0.293 HD
ENDBRANCH  25  28
BRANCH  27  30
ATOM     30  O   UNL     1      -2.133   0.477 -27.417  1.00  0.00    -0.504 OA
ATOM     31  H   UNL     1      -2.500   1.281 -26.999  1.00  0.00     0.293 HD
ENDBRANCH  27  30
ENDBRANCH  21  22
ENDBRANCH  18  20
ENDBRANCH   1  18
TORSDOF 12
ENDMDL
MODEL 8
REMARK VINA RESULT:      -7.6      1.900      4.272
REMARK SMILES O=C(C=Cc1ccc(O)c(O)c1)O[C@@H](Cc1ccc(O)c(O)c1)C(=O)O
REMARK SMILES IDX 13 1 14 2 15 3 16 4 17 5 18 6 19 7 23 8 21 9 20 10 22 12
REMARK SMILES IDX 24 14 25 15 26 16 2 18 1 19 3 20 4 21 5 22 12 23 6 24 10 25
REMARK SMILES IDX 7 26 8 27 11 28 9 30
REMARK H PARENT 20 11 22 13 26 17 11 29 9 31
ROOT
ATOM      1  O   UNL     1      -8.309   1.479 -32.269  1.00  0.00    -0.447 OA
ENDROOT
BRANCH   1   2
ATOM      2  C   UNL     1      -9.283   0.422 -32.114  1.00  0.00     0.290 C 
BRANCH   2   3
ATOM      3  C   UNL     1      -9.780   0.305 -30.665  1.00  0.00     0.093 C 
BRANCH   3   4
ATOM      4  C   UNL     1      -9.498  -1.041 -30.031  1.00  0.00    -0.040 A 
ATOM      5  C   UNL     1      -9.725  -1.244 -28.658  1.00  0.00     0.008 A 
ATOM      6  C   UNL     1      -9.435  -2.473 -28.058  1.00  0.00     0.050 A 
ATOM      7  C   UNL     1      -8.914  -3.500 -28.835  1.00  0.00     0.157 A 
ATOM      8  C   UNL     1      -8.980  -2.093 -30.800  1.00  0.00     0.054 A 
ATOM      9  C   UNL     1      -8.688  -3.307 -30.195  1.00  0.00     0.157 A 
BRANCH   7  10
ATOM     10  O   UNL     1      -8.604  -4.722 -28.306  1.00  0.00    -0.504 OA
ATOM     11  H   UNL     1      -7.809  -4.618 -27.755  1.00  0.00     0.293 HD
ENDBRANCH   7  10
BRANCH   9  12
ATOM     12  O   UNL     1      -8.169  -4.317 -30.951  1.00  0.00    -0.504 OA
ATOM     13  H   UNL     1      -7.535  -3.872 -31.550  1.00  0.00     0.293 HD
ENDBRANCH   9  12
ENDBRANCH   3   4
ENDBRANCH   2   3
BRANCH   2  14
ATOM     14  C   UNL     1     -10.452   0.687 -33.058  1.00  0.00     0.345 C 
ATOM     15  O   UNL     1     -10.953  -0.156 -33.789  1.00  0.00    -0.248 OA
BRANCH  14  16
ATOM     16  O   UNL     1     -10.906   1.964 -33.007  1.00  0.00    -0.478 OA
ATOM     17  H   UNL     1     -11.117   2.279 -33.912  1.00  0.00     0.296 HD
ENDBRANCH  14  16
ENDBRANCH   2  14
ENDBRANCH   1   2
BRANCH   1  18
ATOM     18  C   UNL     1      -7.279   1.183 -33.102  1.00  0.00     0.331 C 
ATOM     19  O   UNL     1      -7.351   1.027 -34.308  1.00  0.00    -0.247 OA
BRANCH  18  20
ATOM     20  C   UNL     1      -6.051   1.067 -32.293  1.00  0.00     0.094 C 
ATOM     21  C   UNL     1      -6.096   1.328 -30.978  1.00  0.00     0.016 C 
BRANCH  21  22
ATOM     22  C   UNL     1      -4.932   1.234 -30.087  1.00  0.00    -0.021 A 
ATOM     23  C   UNL     1      -4.499   2.391 -29.419  1.00  0.00     0.058 A 
ATOM     24  C   UNL     1      -4.210   0.038 -29.926  1.00  0.00     0.012 A 
ATOM     25  C   UNL     1      -3.385   2.331 -28.588  1.00  0.00     0.157 A 
ATOM     26  C   UNL     1      -3.093  -0.013 -29.088  1.00  0.00     0.051 A 
ATOM     27  C   UNL     1      -2.693   1.135 -28.423  1.00  0.00     0.157 A 
BRANCH  25  28
ATOM     28  O   UNL     1      -2.928   3.427 -27.909  1.00  0.00    -0.504 OA
ATOM     29  H   UNL     1      -3.007   3.251 -26.956  1.00  0.00     0.293 HD
ENDBRANCH  25  28
BRANCH  27  30
ATOM     30  O   UNL     1      -1.600   1.085 -27.606  1.00  0.00    -0.504 OA
ATOM     31  H   UNL     1      -1.862   0.483 -26.882  1.00  0.00     0.293 HD
ENDBRANCH  27  30
ENDBRANCH  21  22
ENDBRANCH  18  20
ENDBRANCH   1  18
TORSDOF 12
ENDMDL
MODEL 9
REMARK VINA RESULT:      -7.3      1.484      6.738
REMARK SMILES O=C(C=Cc1ccc(O)c(O)c1)O[C@@H](Cc1ccc(O)c(O)c1)C(=O)O
REMARK SMILES IDX 13 1 14 2 15 3 16 4 17 5 18 6 19 7 23 8 21 9 20 10 22 12
REMARK SMILES IDX 24 14 25 15 26 16 2 18 1 19 3 20 4 21 5 22 12 23 6 24 10 25
REMARK SMILES IDX 7 26 8 27 11 28 9 30
REMARK H PARENT 20 11 22 13 26 17 11 29 9 31
ROOT
ATOM      1  O   UNL     1      -4.192   1.947 -30.320  1.00  0.00    -0.447 OA
ENDROOT
BRANCH   1   2
ATOM      2  C   UNL     1      -4.251   1.334 -29.012  1.00  0.00     0.290 C 
BRANCH   2   3
ATOM      3  C   UNL     1      -4.367  -0.196 -29.098  1.00  0.00     0.093 C 
BRANCH   3   4
ATOM      4  C   UNL     1      -5.794  -0.701 -29.051  1.00  0.00    -0.040 A 
ATOM      5  C   UNL     1      -6.708  -0.172 -28.122  1.00  0.00     0.008 A 
ATOM      6  C   UNL     1      -8.017  -0.658 -28.048  1.00  0.00     0.050 A 
ATOM      7  C   UNL     1      -8.410  -1.678 -28.905  1.00  0.00     0.157 A 
ATOM      8  C   UNL     1      -6.213  -1.725 -29.913  1.00  0.00     0.054 A 
ATOM      9  C   UNL     1      -7.512  -2.206 -29.828  1.00  0.00     0.157 A 
BRANCH   7  10
ATOM     10  O   UNL     1      -9.673  -2.200 -28.877  1.00  0.00    -0.504 OA
ATOM     11  H   UNL     1      -9.739  -2.868 -29.581  1.00  0.00     0.293 HD
ENDBRANCH   7  10
BRANCH   9  12
ATOM     12  O   UNL     1      -7.902  -3.213 -30.662  1.00  0.00    -0.504 OA
ATOM     13  H   UNL     1      -8.473  -2.773 -31.324  1.00  0.00     0.293 HD
ENDBRANCH   9  12
ENDBRANCH   3   4
ENDBRANCH   2   3
BRANCH   2  14
ATOM     14  C   UNL     1      -3.004   1.730 -28.226  1.00  0.00     0.345 C 
ATOM     15  O   UNL     1      -2.101   0.960 -27.932  1.00  0.00    -0.248 OA
BRANCH  14  16
ATOM     16  O   UNL     1      -2.978   3.042 -27.883  1.00  0.00    -0.478 OA
ATOM     17  H   UNL     1      -3.329   3.586 -28.621  1.00  0.00     0.296 HD
ENDBRANCH  14  16
ENDBRANCH   2  14
ENDBRANCH   1   2
BRANCH   1  18
ATOM     18  C   UNL     1      -4.995   3.031 -30.474  1.00  0.00     0.331 C 
ATOM     19  O   UNL     1      -4.658   4.197 -30.372  1.00  0.00    -0.247 OA
BRANCH  18  20
ATOM     20  C   UNL     1      -6.358   2.554 -30.775  1.00  0.00     0.094 C 
ATOM     21  C   UNL     1      -6.556   1.716 -31.804  1.00  0.00     0.016 C 
BRANCH  21  22
ATOM     22  C   UNL     1      -7.872   1.181 -32.179  1.00  0.00    -0.021 A 
ATOM     23  C   UNL     1      -8.815   0.944 -31.166  1.00  0.00     0.058 A 
ATOM     24  C   UNL     1      -8.193   0.851 -33.507  1.00  0.00     0.012 A 
ATOM     25  C   UNL     1     -10.060   0.416 -31.494  1.00  0.00     0.157 A 
ATOM     26  C   UNL     1      -9.447   0.323 -33.827  1.00  0.00     0.051 A 
ATOM     27  C   UNL     1     -10.371   0.114 -32.816  1.00  0.00     0.157 A 
BRANCH  25  28
ATOM     28  O   UNL     1     -11.016   0.175 -30.546  1.00  0.00    -0.504 OA
ATOM     29  H   UNL     1     -11.299  -0.753 -30.627  1.00  0.00     0.293 HD
ENDBRANCH  25  28
BRANCH  27  30
ATOM     30  O   UNL     1     -11.595  -0.404 -33.129  1.00  0.00    -0.504 OA
ATOM     31  H   UNL     1     -12.199  -0.029 -32.458  1.00  0.00     0.293 HD
ENDBRANCH  27  30
ENDBRANCH  21  22
ENDBRANCH  18  20
ENDBRANCH   1  18
TORSDOF 12
ENDMDL
MODEL 10
REMARK VINA RESULT:      -7.2      2.799      5.976
REMARK SMILES O=C(C=Cc1ccc(O)c(O)c1)O[C@@H](Cc1ccc(O)c(O)c1)C(=O)O
REMARK SMILES IDX 13 1 14 2 15 3 16 4 17 5 18 6 19 7 23 8 21 9 20 10 22 12
REMARK SMILES IDX 24 14 25 15 26 16 2 18 1 19 3 20 4 21 5 22 12 23 6 24 10 25
REMARK SMILES IDX 7 26 8 27 11 28 9 30
REMARK H PARENT 20 11 22 13 26 17 11 29 9 31
ROOT
ATOM      1  O   UNL     1      -5.209   1.392 -29.605  1.00  0.00    -0.447 OA
ENDROOT
BRANCH   1   2
ATOM      2  C   UNL     1      -5.449   0.508 -30.724  1.00  0.00     0.290 C 
BRANCH   2   3
ATOM      3  C   UNL     1      -6.213   1.209 -31.857  1.00  0.00     0.093 C 
BRANCH   3   4
ATOM      4  C   UNL     1      -7.639   0.727 -32.019  1.00  0.00    -0.040 A 
ATOM      5  C   UNL     1      -7.966  -0.622 -31.793  1.00  0.00     0.008 A 
ATOM      6  C   UNL     1      -9.274  -1.082 -31.974  1.00  0.00     0.050 A 
ATOM      7  C   UNL     1     -10.256  -0.189 -32.384  1.00  0.00     0.157 A 
ATOM      8  C   UNL     1      -8.647   1.615 -32.423  1.00  0.00     0.054 A 
ATOM      9  C   UNL     1      -9.940   1.148 -32.607  1.00  0.00     0.157 A 
BRANCH   7  10
ATOM     10  O   UNL     1     -11.551  -0.579 -32.584  1.00  0.00    -0.504 OA
ATOM     11  H   UNL     1     -11.603  -1.017 -33.451  1.00  0.00     0.293 HD
ENDBRANCH   7  10
BRANCH   9  12
ATOM     12  O   UNL     1     -10.908   2.019 -33.017  1.00  0.00    -0.504 OA
ATOM     13  H   UNL     1     -10.420   2.839 -33.237  1.00  0.00     0.293 HD
ENDBRANCH   9  12
ENDBRANCH   3   4
ENDBRANCH   2   3
BRANCH   2  14
ATOM     14  C   UNL     1      -4.109  -0.019 -31.231  1.00  0.00     0.345 C 
ATOM     15  O   UNL     1      -3.694  -1.152 -31.032  1.00  0.00    -0.248 OA
BRANCH  14  16
ATOM     16  O   UNL     1      -3.408   0.894 -31.947  1.00  0.00    -0.478 OA
ATOM     17  H   UNL     1      -2.818   1.404 -31.351  1.00  0.00     0.296 HD
ENDBRANCH  14  16
ENDBRANCH   2  14
ENDBRANCH   1   2
BRANCH   1  18
ATOM     18  C   UNL     1      -5.047   0.765 -28.412  1.00  0.00     0.331 C 
ATOM     19  O   UNL     1      -4.039   0.765 -27.729  1.00  0.00    -0.247 OA
BRANCH  18  20
ATOM     20  C   UNL     1      -6.305   0.066 -28.086  1.00  0.00     0.094 C 
ATOM     21  C   UNL     1      -7.331   0.756 -27.564  1.00  0.00     0.016 C 
BRANCH  21  22
ATOM     22  C   UNL     1      -8.625   0.154 -27.214  1.00  0.00    -0.021 A 
ATOM     23  C   UNL     1      -9.078   0.257 -25.889  1.00  0.00     0.058 A 
ATOM     24  C   UNL     1      -9.391  -0.564 -28.148  1.00  0.00     0.012 A 
ATOM     25  C   UNL     1     -10.289  -0.325 -25.528  1.00  0.00     0.157 A 
ATOM     26  C   UNL     1     -10.608  -1.144 -27.776  1.00  0.00     0.051 A 
ATOM     27  C   UNL     1     -11.047  -1.016 -26.469  1.00  0.00     0.157 A 
BRANCH  25  28
ATOM     28  O   UNL     1     -10.779  -0.246 -24.253  1.00  0.00    -0.504 OA
ATOM     29  H   UNL     1     -10.026  -0.222 -23.637  1.00  0.00     0.293 HD
ENDBRANCH  25  28
BRANCH  27  30
ATOM     30  O   UNL     1     -12.234  -1.584 -26.105  1.00  0.00    -0.504 OA
ATOM     31  H   UNL     1     -12.503  -1.099 -25.300  1.00  0.00     0.293 HD
ENDBRANCH  27  30
ENDBRANCH  21  22
ENDBRANCH  18  20
ENDBRANCH   1  18
TORSDOF 12
ENDMDL
