MODEL 1
REMARK VINA RESULT:      -7.7      0.000      0.000
REMARK SMILES O=c1cc(O)cc(/C=C/c2ccc(O)cc2)o1
REMARK SMILES IDX 9 1 8 2 10 3 11 4 12 5 13 6 16 7 15 8 14 9 7 11 6 12 17 13
REMARK SMILES IDX 4 14 2 15 3 16 1 17 5 18
REMARK H PARENT 14 10 5 19
ROOT
ATOM      1  C   UNL     1      -6.690  -2.614 -28.796  1.00  0.00     0.012 C 
ATOM      2  C   UNL     1      -7.487  -3.267 -29.657  1.00  0.00     0.048 C 
ENDROOT
BRANCH   1   3
ATOM      3  C   UNL     1      -5.493  -1.863 -29.201  1.00  0.00    -0.025 A 
ATOM      4  C   UNL     1      -4.292  -1.926 -28.479  1.00  0.00     0.012 A 
ATOM      5  C   UNL     1      -3.182  -1.173 -28.876  1.00  0.00     0.047 A 
ATOM      6  C   UNL     1      -3.278  -0.350 -29.993  1.00  0.00     0.115 A 
ATOM      7  C   UNL     1      -5.572  -1.013 -30.312  1.00  0.00     0.012 A 
ATOM      8  C   UNL     1      -4.464  -0.263 -30.712  1.00  0.00     0.047 A 
BRANCH   6   9
ATOM      9  O   UNL     1      -2.222   0.401 -30.416  1.00  0.00    -0.508 OA
ATOM     10  H   UNL     1      -2.454   1.340 -30.328  1.00  0.00     0.293 HD
ENDBRANCH   6   9
ENDBRANCH   1   3
BRANCH   2  11
ATOM     11  C   UNL     1      -8.679  -4.002 -29.285  1.00  0.00     0.134 A 
ATOM     12  C   UNL     1      -9.449  -4.649 -30.173  1.00  0.00     0.093 A 
ATOM     13  O   UNL     1      -8.992  -3.999 -27.904  1.00  0.00    -0.423 OA
ATOM     14  C   UNL     1     -10.610  -5.350 -29.703  1.00  0.00     0.126 A 
ATOM     15  C   UNL     1     -10.092  -4.656 -27.429  1.00  0.00     0.339 A 
ATOM     16  C   UNL     1     -10.929  -5.364 -28.409  1.00  0.00     0.140 A 
ATOM     17  O   UNL     1     -10.386  -4.669 -26.238  1.00  0.00    -0.246 OA
BRANCH  14  18
ATOM     18  O   UNL     1     -11.384  -6.007 -30.630  1.00  0.00    -0.508 OA
ATOM     19  H   UNL     1     -11.624  -6.886 -30.294  1.00  0.00     0.293 HD
ENDBRANCH  14  18
ENDBRANCH   2  11
TORSDOF 4
ENDMDL
MODEL 2
REMARK VINA RESULT:      -7.3      4.756      5.607
REMARK SMILES O=c1cc(O)cc(/C=C/c2ccc(O)cc2)o1
REMARK SMILES IDX 9 1 8 2 10 3 11 4 12 5 13 6 16 7 15 8 14 9 7 11 6 12 17 13
REMARK SMILES IDX 4 14 2 15 3 16 1 17 5 18
REMARK H PARENT 14 10 5 19
ROOT
ATOM      1  C   UNL     1      -5.405  -1.296 -25.828  1.00  0.00     0.012 C 
ATOM      2  C   UNL     1      -6.133  -0.415 -25.123  1.00  0.00     0.048 C 
ENDROOT
BRANCH   1   3
ATOM      3  C   UNL     1      -4.455  -0.911 -26.882  1.00  0.00    -0.025 A 
ATOM      4  C   UNL     1      -4.180  -1.741 -27.979  1.00  0.00     0.012 A 
ATOM      5  C   UNL     1      -3.247  -1.355 -28.947  1.00  0.00     0.047 A 
ATOM      6  C   UNL     1      -2.583  -0.141 -28.812  1.00  0.00     0.115 A 
ATOM      7  C   UNL     1      -3.761   0.300 -26.757  1.00  0.00     0.012 A 
ATOM      8  C   UNL     1      -2.832   0.688 -27.724  1.00  0.00     0.047 A 
BRANCH   6   9
ATOM      9  O   UNL     1      -1.667   0.275 -29.731  1.00  0.00    -0.508 OA
ATOM     10  H   UNL     1      -0.785   0.246 -29.325  1.00  0.00     0.293 HD
ENDBRANCH   6   9
ENDBRANCH   1   3
BRANCH   2  11
ATOM     11  C   UNL     1      -7.065  -0.768 -24.070  1.00  0.00     0.134 A 
ATOM     12  C   UNL     1      -7.932   0.104 -23.537  1.00  0.00     0.093 A 
ATOM     13  O   UNL     1      -7.007  -2.112 -23.629  1.00  0.00    -0.423 OA
ATOM     14  C   UNL     1      -8.816  -0.344 -22.498  1.00  0.00     0.126 A 
ATOM     15  C   UNL     1      -7.834  -2.566 -22.640  1.00  0.00     0.339 A 
ATOM     16  C   UNL     1      -8.783  -1.604 -22.062  1.00  0.00     0.140 A 
ATOM     17  O   UNL     1      -7.803  -3.724 -22.239  1.00  0.00    -0.246 OA
BRANCH  14  18
ATOM     18  O   UNL     1      -9.698   0.566 -21.965  1.00  0.00    -0.508 OA
ATOM     19  H   UNL     1      -9.753   0.445 -21.003  1.00  0.00     0.293 HD
ENDBRANCH  14  18
ENDBRANCH   2  11
TORSDOF 4
ENDMDL
MODEL 3
REMARK VINA RESULT:      -7.2      4.780      5.588
REMARK SMILES O=c1cc(O)cc(/C=C/c2ccc(O)cc2)o1
REMARK SMILES IDX 9 1 8 2 10 3 11 4 12 5 13 6 16 7 15 8 14 9 7 11 6 12 17 13
REMARK SMILES IDX 4 14 2 15 3 16 1 17 5 18
REMARK H PARENT 14 10 5 19
ROOT
ATOM      1  C   UNL     1      -5.290  -1.187 -25.764  1.00  0.00     0.012 C 
ATOM      2  C   UNL     1      -6.124  -0.329 -25.154  1.00  0.00     0.048 C 
ENDROOT
BRANCH   1   3
ATOM      3  C   UNL     1      -4.332  -0.792 -26.807  1.00  0.00    -0.025 A 
ATOM      4  C   UNL     1      -3.624   0.417 -26.752  1.00  0.00     0.012 A 
ATOM      5  C   UNL     1      -2.744   0.774 -27.778  1.00  0.00     0.047 A 
ATOM      6  C   UNL     1      -2.579  -0.076 -28.865  1.00  0.00     0.115 A 
ATOM      7  C   UNL     1      -4.164  -1.625 -27.921  1.00  0.00     0.012 A 
ATOM      8  C   UNL     1      -3.284  -1.271 -28.945  1.00  0.00     0.047 A 
BRANCH   6   9
ATOM      9  O   UNL     1      -1.733   0.232 -29.888  1.00  0.00    -0.508 OA
ATOM     10  H   UNL     1      -1.095  -0.493 -29.993  1.00  0.00     0.293 HD
ENDBRANCH   6   9
ENDBRANCH   1   3
BRANCH   2  11
ATOM     11  C   UNL     1      -7.067  -0.691 -24.114  1.00  0.00     0.134 A 
ATOM     12  C   UNL     1      -7.957   0.170 -23.600  1.00  0.00     0.093 A 
ATOM     13  O   UNL     1      -6.993  -2.031 -23.663  1.00  0.00    -0.423 OA
ATOM     14  C   UNL     1      -8.850  -0.287 -22.573  1.00  0.00     0.126 A 
ATOM     15  C   UNL     1      -7.829  -2.493 -22.685  1.00  0.00     0.339 A 
ATOM     16  C   UNL     1      -8.804  -1.543 -22.129  1.00  0.00     0.140 A 
ATOM     17  O   UNL     1      -7.785  -3.648 -22.276  1.00  0.00    -0.246 OA
BRANCH  14  18
ATOM     18  O   UNL     1      -9.756   0.611 -22.061  1.00  0.00    -0.508 OA
ATOM     19  H   UNL     1     -10.485   0.738 -22.690  1.00  0.00     0.293 HD
ENDBRANCH  14  18
ENDBRANCH   2  11
TORSDOF 4
ENDMDL
MODEL 4
REMARK VINA RESULT:      -7.2      5.030      5.665
REMARK SMILES O=c1cc(O)cc(/C=C/c2ccc(O)cc2)o1
REMARK SMILES IDX 9 1 8 2 10 3 11 4 12 5 13 6 16 7 15 8 14 9 7 11 6 12 17 13
REMARK SMILES IDX 4 14 2 15 3 16 1 17 5 18
REMARK H PARENT 14 10 5 19
ROOT
ATOM      1  C   UNL     1      -5.220  -1.198 -25.905  1.00  0.00     0.012 C 
ATOM      2  C   UNL     1      -5.790  -0.356 -25.028  1.00  0.00     0.048 C 
ENDROOT
BRANCH   1   3
ATOM      3  C   UNL     1      -4.247  -0.778 -26.924  1.00  0.00    -0.025 A 
ATOM      4  C   UNL     1      -3.555   0.439 -26.841  1.00  0.00     0.012 A 
ATOM      5  C   UNL     1      -2.659   0.819 -27.845  1.00  0.00     0.047 A 
ATOM      6  C   UNL     1      -2.462  -0.016 -28.939  1.00  0.00     0.115 A 
ATOM      7  C   UNL     1      -4.046  -1.596 -28.045  1.00  0.00     0.012 A 
ATOM      8  C   UNL     1      -3.150  -1.219 -29.047  1.00  0.00     0.047 A 
BRANCH   6   9
ATOM      9  O   UNL     1      -1.600   0.314 -29.940  1.00  0.00    -0.508 OA
ATOM     10  H   UNL     1      -2.014   0.996 -30.495  1.00  0.00     0.293 HD
ENDBRANCH   6   9
ENDBRANCH   1   3
BRANCH   2  11
ATOM     11  C   UNL     1      -6.741  -0.747 -24.006  1.00  0.00     0.134 A 
ATOM     12  C   UNL     1      -6.722  -1.945 -23.407  1.00  0.00     0.093 A 
ATOM     13  O   UNL     1      -7.712   0.229 -23.671  1.00  0.00    -0.423 OA
ATOM     14  C   UNL     1      -7.709  -2.236 -22.405  1.00  0.00     0.126 A 
ATOM     15  C   UNL     1      -8.663  -0.021 -22.723  1.00  0.00     0.339 A 
ATOM     16  C   UNL     1      -8.634  -1.337 -22.069  1.00  0.00     0.140 A 
ATOM     17  O   UNL     1      -9.515   0.806 -22.415  1.00  0.00    -0.246 OA
BRANCH  14  18
ATOM     18  O   UNL     1      -7.670  -3.471 -21.802  1.00  0.00    -0.508 OA
ATOM     19  H   UNL     1      -7.153  -3.419 -20.981  1.00  0.00     0.293 HD
ENDBRANCH  14  18
ENDBRANCH   2  11
TORSDOF 4
ENDMDL
MODEL 5
REMARK VINA RESULT:      -7.1      4.293      7.650
REMARK SMILES O=c1cc(O)cc(/C=C/c2ccc(O)cc2)o1
REMARK SMILES IDX 9 1 8 2 10 3 11 4 12 5 13 6 16 7 15 8 14 9 7 11 6 12 17 13
REMARK SMILES IDX 4 14 2 15 3 16 1 17 5 18
REMARK H PARENT 14 10 5 19
ROOT
ATOM      1  C   UNL     1      -6.749   0.498 -30.722  1.00  0.00     0.012 C 
ATOM      2  C   UNL     1      -5.720  -0.355 -30.854  1.00  0.00     0.048 C 
ENDROOT
BRANCH   1   3
ATOM      3  C   UNL     1      -8.101   0.233 -31.237  1.00  0.00    -0.025 A 
ATOM      4  C   UNL     1      -9.213   0.115 -30.391  1.00  0.00     0.012 A 
ATOM      5  C   UNL     1     -10.478  -0.168 -30.915  1.00  0.00     0.047 A 
ATOM      6  C   UNL     1     -10.629  -0.342 -32.286  1.00  0.00     0.115 A 
ATOM      7  C   UNL     1      -8.272   0.036 -32.614  1.00  0.00     0.012 A 
ATOM      8  C   UNL     1      -9.535  -0.244 -33.138  1.00  0.00     0.047 A 
BRANCH   6   9
ATOM      9  O   UNL     1     -11.843  -0.619 -32.839  1.00  0.00    -0.508 OA
ATOM     10  H   UNL     1     -12.423  -0.981 -32.149  1.00  0.00     0.293 HD
ENDBRANCH   6   9
ENDBRANCH   1   3
BRANCH   2  11
ATOM     11  C   UNL     1      -4.384  -0.123 -30.344  1.00  0.00     0.134 A 
ATOM     12  C   UNL     1      -3.289  -0.147 -31.118  1.00  0.00     0.093 A 
ATOM     13  O   UNL     1      -4.297   0.134 -28.954  1.00  0.00    -0.423 OA
ATOM     14  C   UNL     1      -2.009   0.096 -30.516  1.00  0.00     0.126 A 
ATOM     15  C   UNL     1      -3.092   0.367 -28.354  1.00  0.00     0.339 A 
ATOM     16  C   UNL     1      -1.897   0.341 -29.211  1.00  0.00     0.140 A 
ATOM     17  O   UNL     1      -2.989   0.591 -27.153  1.00  0.00    -0.246 OA
BRANCH  14  18
ATOM     18  O   UNL     1      -0.900   0.068 -31.329  1.00  0.00    -0.508 OA
ATOM     19  H   UNL     1      -0.987   0.739 -32.026  1.00  0.00     0.293 HD
ENDBRANCH  14  18
ENDBRANCH   2  11
TORSDOF 4
ENDMDL
MODEL 6
REMARK VINA RESULT:      -7.0      5.599      8.866
REMARK SMILES O=c1cc(O)cc(/C=C/c2ccc(O)cc2)o1
REMARK SMILES IDX 9 1 8 2 10 3 11 4 12 5 13 6 16 7 15 8 14 9 7 11 6 12 17 13
REMARK SMILES IDX 4 14 2 15 3 16 1 17 5 18
REMARK H PARENT 14 10 5 19
ROOT
ATOM      1  C   UNL     1      -6.382   1.913 -31.214  1.00  0.00     0.012 C 
ATOM      2  C   UNL     1      -6.377   2.716 -30.137  1.00  0.00     0.048 C 
ENDROOT
BRANCH   1   3
ATOM      3  C   UNL     1      -7.608   1.433 -31.868  1.00  0.00    -0.025 A 
ATOM      4  C   UNL     1      -8.829   1.332 -31.186  1.00  0.00     0.012 A 
ATOM      5  C   UNL     1      -9.967   0.842 -31.832  1.00  0.00     0.047 A 
ATOM      6  C   UNL     1      -9.882   0.443 -33.162  1.00  0.00     0.115 A 
ATOM      7  C   UNL     1      -7.540   1.008 -33.202  1.00  0.00     0.012 A 
ATOM      8  C   UNL     1      -8.677   0.520 -33.850  1.00  0.00     0.047 A 
BRANCH   6   9
ATOM      9  O   UNL     1     -10.965  -0.042 -33.831  1.00  0.00    -0.508 OA
ATOM     10  H   UNL     1     -11.729  -0.037 -33.230  1.00  0.00     0.293 HD
ENDBRANCH   6   9
ENDBRANCH   1   3
BRANCH   2  11
ATOM     11  C   UNL     1      -5.184   3.214 -29.483  1.00  0.00     0.134 A 
ATOM     12  C   UNL     1      -4.912   4.520 -29.348  1.00  0.00     0.093 A 
ATOM     13  O   UNL     1      -4.303   2.223 -28.984  1.00  0.00    -0.423 OA
ATOM     14  C   UNL     1      -3.702   4.911 -28.683  1.00  0.00     0.126 A 
ATOM     15  C   UNL     1      -3.144   2.566 -28.347  1.00  0.00     0.339 A 
ATOM     16  C   UNL     1      -2.854   4.001 -28.202  1.00  0.00     0.140 A 
ATOM     17  O   UNL     1      -2.364   1.729 -27.906  1.00  0.00    -0.246 OA
BRANCH  14  18
ATOM     18  O   UNL     1      -3.443   6.255 -28.555  1.00  0.00    -0.508 OA
ATOM     19  H   UNL     1      -4.117   6.667 -27.990  1.00  0.00     0.293 HD
ENDBRANCH  14  18
ENDBRANCH   2  11
TORSDOF 4
ENDMDL
MODEL 7
REMARK VINA RESULT:      -6.9      0.975      2.377
REMARK SMILES O=c1cc(O)cc(/C=C/c2ccc(O)cc2)o1
REMARK SMILES IDX 9 1 8 2 10 3 11 4 12 5 13 6 16 7 15 8 14 9 7 11 6 12 17 13
REMARK SMILES IDX 4 14 2 15 3 16 1 17 5 18
REMARK H PARENT 14 10 5 19
ROOT
ATOM      1  C   UNL     1      -7.033  -2.149 -29.241  1.00  0.00     0.012 C 
ATOM      2  C   UNL     1      -7.616  -3.247 -29.750  1.00  0.00     0.048 C 
ENDROOT
BRANCH   1   3
ATOM      3  C   UNL     1      -5.850  -1.506 -29.831  1.00  0.00    -0.025 A 
ATOM      4  C   UNL     1      -5.949  -0.396 -30.681  1.00  0.00     0.012 A 
ATOM      5  C   UNL     1      -4.803   0.171 -31.248  1.00  0.00     0.047 A 
ATOM      6  C   UNL     1      -3.557  -0.380 -30.971  1.00  0.00     0.115 A 
ATOM      7  C   UNL     1      -4.586  -2.057 -29.579  1.00  0.00     0.012 A 
ATOM      8  C   UNL     1      -3.441  -1.491 -30.143  1.00  0.00     0.047 A 
BRANCH   6   9
ATOM      9  O   UNL     1      -2.415   0.139 -31.502  1.00  0.00    -0.508 OA
ATOM     10  H   UNL     1      -2.038  -0.508 -32.122  1.00  0.00     0.293 HD
ENDBRANCH   6   9
ENDBRANCH   1   3
BRANCH   2  11
ATOM     11  C   UNL     1      -8.790  -3.892 -29.196  1.00  0.00     0.134 A 
ATOM     12  C   UNL     1      -9.226  -3.673 -27.947  1.00  0.00     0.093 A 
ATOM     13  O   UNL     1      -9.464  -4.783 -30.065  1.00  0.00    -0.423 OA
ATOM     14  C   UNL     1     -10.401  -4.361 -27.492  1.00  0.00     0.126 A 
ATOM     15  C   UNL     1     -10.584  -5.453 -29.658  1.00  0.00     0.339 A 
ATOM     16  C   UNL     1     -11.056  -5.206 -28.288  1.00  0.00     0.140 A 
ATOM     17  O   UNL     1     -11.185  -6.231 -30.391  1.00  0.00    -0.246 OA
BRANCH  14  18
ATOM     18  O   UNL     1     -10.831  -4.121 -26.208  1.00  0.00    -0.508 OA
ATOM     19  H   UNL     1     -11.680  -3.649 -26.229  1.00  0.00     0.293 HD
ENDBRANCH  14  18
ENDBRANCH   2  11
TORSDOF 4
ENDMDL
MODEL 8
REMARK VINA RESULT:      -6.9      1.694      7.488
REMARK SMILES O=c1cc(O)cc(/C=C/c2ccc(O)cc2)o1
REMARK SMILES IDX 9 1 8 2 10 3 11 4 12 5 13 6 16 7 15 8 14 9 7 11 6 12 17 13
REMARK SMILES IDX 4 14 2 15 3 16 1 17 5 18
REMARK H PARENT 14 10 5 19
ROOT
ATOM      1  C   UNL     1      -7.648  -2.942 -29.416  1.00  0.00     0.012 C 
ATOM      2  C   UNL     1      -6.776  -2.449 -28.521  1.00  0.00     0.048 C 
ENDROOT
BRANCH   1   3
ATOM      3  C   UNL     1      -8.734  -3.871 -29.071  1.00  0.00    -0.025 A 
ATOM      4  C   UNL     1      -9.100  -4.935 -29.907  1.00  0.00     0.012 A 
ATOM      5  C   UNL     1     -10.158  -5.781 -29.561  1.00  0.00     0.047 A 
ATOM      6  C   UNL     1     -10.856  -5.557 -28.380  1.00  0.00     0.115 A 
ATOM      7  C   UNL     1      -9.462  -3.653 -27.894  1.00  0.00     0.012 A 
ATOM      8  C   UNL     1     -10.518  -4.498 -27.545  1.00  0.00     0.047 A 
BRANCH   6   9
ATOM      9  O   UNL     1     -11.894  -6.355 -28.003  1.00  0.00    -0.508 OA
ATOM     10  H   UNL     1     -12.669  -5.797 -27.829  1.00  0.00     0.293 HD
ENDBRANCH   6   9
ENDBRANCH   1   3
BRANCH   2  11
ATOM     11  C   UNL     1      -5.707  -1.522 -28.833  1.00  0.00     0.134 A 
ATOM     12  C   UNL     1      -5.422  -0.450 -28.079  1.00  0.00     0.093 A 
ATOM     13  O   UNL     1      -4.965  -1.817 -30.002  1.00  0.00    -0.423 OA
ATOM     14  C   UNL     1      -4.341   0.408 -28.474  1.00  0.00     0.126 A 
ATOM     15  C   UNL     1      -3.932  -1.017 -30.403  1.00  0.00     0.339 A 
ATOM     16  C   UNL     1      -3.625   0.155 -29.569  1.00  0.00     0.140 A 
ATOM     17  O   UNL     1      -3.274  -1.249 -31.412  1.00  0.00    -0.246 OA
BRANCH  14  18
ATOM     18  O   UNL     1      -4.066   1.501 -27.686  1.00  0.00    -0.508 OA
ATOM     19  H   UNL     1      -3.121   1.514 -27.461  1.00  0.00     0.293 HD
ENDBRANCH  14  18
ENDBRANCH   2  11
TORSDOF 4
ENDMDL
MODEL 9
REMARK VINA RESULT:      -6.8      4.892      8.179
REMARK SMILES O=c1cc(O)cc(/C=C/c2ccc(O)cc2)o1
REMARK SMILES IDX 9 1 8 2 10 3 11 4 12 5 13 6 16 7 15 8 14 9 7 11 6 12 17 13
REMARK SMILES IDX 4 14 2 15 3 16 1 17 5 18
REMARK H PARENT 14 10 5 19
ROOT
ATOM      1  C   UNL     1      -5.591  -0.432 -24.933  1.00  0.00     0.012 C 
ATOM      2  C   UNL     1      -5.662  -0.744 -26.237  1.00  0.00     0.048 C 
ENDROOT
BRANCH   1   3
ATOM      3  C   UNL     1      -6.701  -0.622 -23.987  1.00  0.00    -0.025 A 
ATOM      4  C   UNL     1      -6.806  -1.763 -23.179  1.00  0.00     0.012 A 
ATOM      5  C   UNL     1      -7.892  -1.924 -22.313  1.00  0.00     0.047 A 
ATOM      6  C   UNL     1      -8.879  -0.945 -22.262  1.00  0.00     0.115 A 
ATOM      7  C   UNL     1      -7.716   0.343 -23.933  1.00  0.00     0.012 A 
ATOM      8  C   UNL     1      -8.800   0.185 -23.067  1.00  0.00     0.047 A 
BRANCH   6   9
ATOM      9  O   UNL     1      -9.954  -1.061 -21.434  1.00  0.00    -0.508 OA
ATOM     10  H   UNL     1     -10.736  -0.703 -21.887  1.00  0.00     0.293 HD
ENDBRANCH   6   9
ENDBRANCH   1   3
BRANCH   2  11
ATOM     11  C   UNL     1      -4.579  -0.578 -27.186  1.00  0.00     0.134 A 
ATOM     12  C   UNL     1      -3.531   0.230 -26.970  1.00  0.00     0.093 A 
ATOM     13  O   UNL     1      -4.692  -1.333 -28.379  1.00  0.00    -0.423 OA
ATOM     14  C   UNL     1      -2.509   0.324 -27.974  1.00  0.00     0.126 A 
ATOM     15  C   UNL     1      -3.736  -1.262 -29.352  1.00  0.00     0.339 A 
ATOM     16  C   UNL     1      -2.589  -0.376 -29.106  1.00  0.00     0.140 A 
ATOM     17  O   UNL     1      -3.810  -1.905 -30.394  1.00  0.00    -0.246 OA
BRANCH  14  18
ATOM     18  O   UNL     1      -1.443   1.158 -27.731  1.00  0.00    -0.508 OA
ATOM     19  H   UNL     1      -0.728   0.968 -28.360  1.00  0.00     0.293 HD
ENDBRANCH  14  18
ENDBRANCH   2  11
TORSDOF 4
ENDMDL
MODEL 10
REMARK VINA RESULT:      -6.8      3.805      4.763
REMARK SMILES O=c1cc(O)cc(/C=C/c2ccc(O)cc2)o1
REMARK SMILES IDX 9 1 8 2 10 3 11 4 12 5 13 6 16 7 15 8 14 9 7 11 6 12 17 13
REMARK SMILES IDX 4 14 2 15 3 16 1 17 5 18
REMARK H PARENT 14 10 5 19
ROOT
ATOM      1  C   UNL     1      -6.417   0.158 -29.605  1.00  0.00     0.012 C 
ATOM      2  C   UNL     1      -6.924   0.739 -30.705  1.00  0.00     0.048 C 
ENDROOT
BRANCH   1   3
ATOM      3  C   UNL     1      -5.082   0.457 -29.066  1.00  0.00    -0.025 A 
ATOM      4  C   UNL     1      -4.676   1.763 -28.758  1.00  0.00     0.012 A 
ATOM      5  C   UNL     1      -3.388   2.014 -28.275  1.00  0.00     0.047 A 
ATOM      6  C   UNL     1      -2.501   0.955 -28.109  1.00  0.00     0.115 A 
ATOM      7  C   UNL     1      -4.167  -0.592 -28.907  1.00  0.00     0.012 A 
ATOM      8  C   UNL     1      -2.881  -0.345 -28.423  1.00  0.00     0.047 A 
BRANCH   6   9
ATOM      9  O   UNL     1      -1.237   1.152 -27.642  1.00  0.00    -0.508 OA
ATOM     10  H   UNL     1      -1.272   1.239 -26.675  1.00  0.00     0.293 HD
ENDBRANCH   6   9
ENDBRANCH   1   3
BRANCH   2  11
ATOM     11  C   UNL     1      -8.240   0.472 -31.249  1.00  0.00     0.134 A 
ATOM     12  C   UNL     1      -8.960   1.389 -31.911  1.00  0.00     0.093 A 
ATOM     13  O   UNL     1      -8.734  -0.838 -31.036  1.00  0.00    -0.423 OA
ATOM     14  C   UNL     1     -10.255   1.025 -32.412  1.00  0.00     0.126 A 
ATOM     15  C   UNL     1      -9.963  -1.212 -31.500  1.00  0.00     0.339 A 
ATOM     16  C   UNL     1     -10.745  -0.202 -32.228  1.00  0.00     0.140 A 
ATOM     17  O   UNL     1     -10.414  -2.340 -31.329  1.00  0.00    -0.246 OA
BRANCH  14  18
ATOM     18  O   UNL     1     -10.975   1.980 -33.090  1.00  0.00    -0.508 OA
ATOM     19  H   UNL     1     -10.618   2.085 -33.987  1.00  0.00     0.293 HD
ENDBRANCH  14  18
ENDBRANCH   2  11
TORSDOF 4
ENDMDL
