MODEL 1
REMARK VINA RESULT:      -5.9      0.000      0.000
REMARK SMILES C=Cc1ccc(O)c(OC)c1
REMARK SMILES IDX 8 1 6 2 5 3 4 4 3 5 11 6 9 7 10 8 7 9 2 11 1 12
REMARK H PARENT 7 10
ROOT
ATOM      1  C   UNL     1       6.643  -0.909 -18.133  1.00  0.00     0.161 A 
ATOM      2  C   UNL     1       6.247  -1.948 -17.284  1.00  0.00     0.157 A 
ATOM      3  C   UNL     1       5.851  -3.182 -17.781  1.00  0.00     0.051 A 
ATOM      4  C   UNL     1       5.851  -3.392 -19.160  1.00  0.00     0.012 A 
ATOM      5  C   UNL     1       6.254  -2.374 -20.036  1.00  0.00    -0.022 A 
ATOM      6  C   UNL     1       6.637  -1.126 -19.512  1.00  0.00     0.058 A 
ENDROOT
BRANCH   1   7
ATOM      7  O   UNL     1       7.002   0.252 -17.496  1.00  0.00    -0.493 OA
ATOM      8  C   UNL     1       8.390   0.567 -17.481  1.00  0.00     0.278 C 
ENDBRANCH   1   7
BRANCH   2   9
ATOM      9  O   UNL     1       6.238  -1.765 -15.928  1.00  0.00    -0.504 OA
ATOM     10  H   UNL     1       6.289  -2.667 -15.554  1.00  0.00     0.293 HD
ENDBRANCH   2   9
BRANCH   5  11
ATOM     11  C   UNL     1       6.236  -2.552 -21.495  1.00  0.00     0.000 C 
ATOM     12  C   UNL     1       5.199  -2.230 -22.280  1.00  0.00     0.009 C 
ENDBRANCH   5  11
TORSDOF 3
ENDMDL
MODEL 2
REMARK VINA RESULT:      -5.7     13.551     14.929
REMARK SMILES C=Cc1ccc(O)c(OC)c1
REMARK SMILES IDX 8 1 6 2 5 3 4 4 3 5 11 6 9 7 10 8 7 9 2 11 1 12
REMARK H PARENT 7 10
ROOT
ATOM      1  C   UNL     1      -1.128 -10.580 -27.283  1.00  0.00     0.161 A 
ATOM      2  C   UNL     1      -0.834  -9.216 -27.381  1.00  0.00     0.157 A 
ATOM      3  C   UNL     1      -1.838  -8.259 -27.455  1.00  0.00     0.051 A 
ATOM      4  C   UNL     1      -3.171  -8.668 -27.427  1.00  0.00     0.012 A 
ATOM      5  C   UNL     1      -3.498 -10.027 -27.316  1.00  0.00    -0.022 A 
ATOM      6  C   UNL     1      -2.466 -10.981 -27.258  1.00  0.00     0.058 A 
ENDROOT
BRANCH   1   7
ATOM      7  O   UNL     1      -0.033 -11.404 -27.223  1.00  0.00    -0.493 OA
ATOM      8  C   UNL     1       0.428 -11.756 -25.924  1.00  0.00     0.278 C 
ENDBRANCH   1   7
BRANCH   2   9
ATOM      9  O   UNL     1       0.466  -8.791 -27.411  1.00  0.00    -0.504 OA
ATOM     10  H   UNL     1       0.802  -8.951 -26.508  1.00  0.00     0.293 HD
ENDBRANCH   2   9
BRANCH   5  11
ATOM     11  C   UNL     1      -4.891 -10.494 -27.315  1.00  0.00     0.000 C 
ATOM     12  C   UNL     1      -5.599 -10.752 -26.207  1.00  0.00     0.009 C 
ENDBRANCH   5  11
TORSDOF 3
ENDMDL
MODEL 3
REMARK VINA RESULT:      -5.4     13.861     15.396
REMARK SMILES C=Cc1ccc(O)c(OC)c1
REMARK SMILES IDX 8 1 6 2 5 3 4 4 3 5 11 6 9 7 10 8 7 9 2 11 1 12
REMARK H PARENT 7 10
ROOT
ATOM      1  C   UNL     1      -4.404  -0.678 -29.957  1.00  0.00     0.161 A 
ATOM      2  C   UNL     1      -3.145  -0.391 -30.495  1.00  0.00     0.157 A 
ATOM      3  C   UNL     1      -2.112   0.096 -29.706  1.00  0.00     0.051 A 
ATOM      4  C   UNL     1      -2.333   0.300 -28.344  1.00  0.00     0.012 A 
ATOM      5  C   UNL     1      -3.580   0.009 -27.773  1.00  0.00    -0.022 A 
ATOM      6  C   UNL     1      -4.618  -0.468 -28.593  1.00  0.00     0.058 A 
ENDROOT
BRANCH   1   7
ATOM      7  O   UNL     1      -5.324  -1.148 -30.860  1.00  0.00    -0.493 OA
ATOM      8  C   UNL     1      -6.414  -0.286 -31.166  1.00  0.00     0.278 C 
ENDBRANCH   1   7
BRANCH   2   9
ATOM      9  O   UNL     1      -2.904  -0.582 -31.828  1.00  0.00    -0.504 OA
ATOM     10  H   UNL     1      -2.016  -0.989 -31.865  1.00  0.00     0.293 HD
ENDBRANCH   2   9
BRANCH   5  11
ATOM     11  C   UNL     1      -3.857   0.242 -26.349  1.00  0.00     0.000 C 
ATOM     12  C   UNL     1      -4.874  -0.313 -25.678  1.00  0.00     0.009 C 
ENDBRANCH   5  11
TORSDOF 3
ENDMDL
MODEL 4
REMARK VINA RESULT:      -5.4     13.189     14.700
REMARK SMILES C=Cc1ccc(O)c(OC)c1
REMARK SMILES IDX 8 1 6 2 5 3 4 4 3 5 11 6 9 7 10 8 7 9 2 11 1 12
REMARK H PARENT 7 10
ROOT
ATOM      1  C   UNL     1      -2.176 -10.334 -27.380  1.00  0.00     0.161 A 
ATOM      2  C   UNL     1      -1.740  -9.043 -27.699  1.00  0.00     0.157 A 
ATOM      3  C   UNL     1      -0.504  -8.570 -27.281  1.00  0.00     0.051 A 
ATOM      4  C   UNL     1       0.325  -9.401 -26.529  1.00  0.00     0.012 A 
ATOM      5  C   UNL     1      -0.078 -10.705 -26.204  1.00  0.00    -0.022 A 
ATOM      6  C   UNL     1      -1.341 -11.159 -26.624  1.00  0.00     0.058 A 
ENDROOT
BRANCH   1   7
ATOM      7  O   UNL     1      -3.421 -10.658 -27.859  1.00  0.00    -0.493 OA
ATOM      8  C   UNL     1      -4.515 -10.464 -26.971  1.00  0.00     0.278 C 
ENDBRANCH   1   7
BRANCH   2   9
ATOM      9  O   UNL     1      -2.536  -8.209 -28.436  1.00  0.00    -0.504 OA
ATOM     10  H   UNL     1      -3.185  -8.799 -28.867  1.00  0.00     0.293 HD
ENDBRANCH   2   9
BRANCH   5  11
ATOM     11  C   UNL     1       0.757 -11.596 -25.386  1.00  0.00     0.000 C 
ATOM     12  C   UNL     1       0.834 -12.922 -25.557  1.00  0.00     0.009 C 
ENDBRANCH   5  11
TORSDOF 3
ENDMDL
MODEL 5
REMARK VINA RESULT:      -5.4      4.625      6.777
REMARK SMILES C=Cc1ccc(O)c(OC)c1
REMARK SMILES IDX 8 1 6 2 5 3 4 4 3 5 11 6 9 7 10 8 7 9 2 11 1 12
REMARK H PARENT 7 10
ROOT
ATOM      1  C   UNL     1       4.590  -1.743 -23.805  1.00  0.00     0.161 A 
ATOM      2  C   UNL     1       3.280  -1.453 -24.199  1.00  0.00     0.157 A 
ATOM      3  C   UNL     1       3.011  -0.719 -25.345  1.00  0.00     0.051 A 
ATOM      4  C   UNL     1       4.073  -0.262 -26.126  1.00  0.00     0.012 A 
ATOM      5  C   UNL     1       5.398  -0.547 -25.765  1.00  0.00    -0.022 A 
ATOM      6  C   UNL     1       5.648  -1.279 -24.590  1.00  0.00     0.058 A 
ENDROOT
BRANCH   1   7
ATOM      7  O   UNL     1       4.698  -2.473 -22.648  1.00  0.00    -0.493 OA
ATOM      8  C   UNL     1       5.635  -2.006 -21.685  1.00  0.00     0.278 C 
ENDBRANCH   1   7
BRANCH   2   9
ATOM      9  O   UNL     1       2.222  -1.890 -23.449  1.00  0.00    -0.504 OA
ATOM     10  H   UNL     1       1.971  -2.747 -23.846  1.00  0.00     0.293 HD
ENDBRANCH   2   9
BRANCH   5  11
ATOM     11  C   UNL     1       6.540  -0.054 -26.547  1.00  0.00     0.000 C 
ATOM     12  C   UNL     1       6.435   0.525 -27.750  1.00  0.00     0.009 C 
ENDBRANCH   5  11
TORSDOF 3
ENDMDL
MODEL 6
REMARK VINA RESULT:      -5.3     13.412     13.951
REMARK SMILES C=Cc1ccc(O)c(OC)c1
REMARK SMILES IDX 8 1 6 2 5 3 4 4 3 5 11 6 9 7 10 8 7 9 2 11 1 12
REMARK H PARENT 7 10
ROOT
ATOM      1  C   UNL     1      -2.880   0.741 -28.015  1.00  0.00     0.161 A 
ATOM      2  C   UNL     1      -2.613  -0.112 -29.092  1.00  0.00     0.157 A 
ATOM      3  C   UNL     1      -3.180  -1.375 -29.177  1.00  0.00     0.051 A 
ATOM      4  C   UNL     1      -4.042  -1.804 -28.167  1.00  0.00     0.012 A 
ATOM      5  C   UNL     1      -4.339  -0.968 -27.081  1.00  0.00    -0.022 A 
ATOM      6  C   UNL     1      -3.741   0.303 -27.007  1.00  0.00     0.058 A 
ENDROOT
BRANCH   1   7
ATOM      7  O   UNL     1      -2.243   1.955 -28.068  1.00  0.00    -0.493 OA
ATOM      8  C   UNL     1      -3.054   3.088 -28.355  1.00  0.00     0.278 C 
ENDBRANCH   1   7
BRANCH   2   9
ATOM      9  O   UNL     1      -1.771   0.287 -30.095  1.00  0.00    -0.504 OA
ATOM     10  H   UNL     1      -2.347   0.393 -30.877  1.00  0.00     0.293 HD
ENDBRANCH   2   9
BRANCH   5  11
ATOM     11  C   UNL     1      -5.217  -1.400 -25.984  1.00  0.00     0.000 C 
ATOM     12  C   UNL     1      -5.557  -0.629 -24.943  1.00  0.00     0.009 C 
ENDBRANCH   5  11
TORSDOF 3
ENDMDL
MODEL 7
REMARK VINA RESULT:      -5.2     14.475     16.151
REMARK SMILES C=Cc1ccc(O)c(OC)c1
REMARK SMILES IDX 8 1 6 2 5 3 4 4 3 5 11 6 9 7 10 8 7 9 2 11 1 12
REMARK H PARENT 7 10
ROOT
ATOM      1  C   UNL     1      -4.997  -0.341 -30.749  1.00  0.00     0.161 A 
ATOM      2  C   UNL     1      -3.701   0.144 -30.954  1.00  0.00     0.157 A 
ATOM      3  C   UNL     1      -2.684  -0.091 -30.040  1.00  0.00     0.051 A 
ATOM      4  C   UNL     1      -2.959  -0.834 -28.891  1.00  0.00     0.012 A 
ATOM      5  C   UNL     1      -4.245  -1.346 -28.664  1.00  0.00    -0.022 A 
ATOM      6  C   UNL     1      -5.265  -1.082 -29.596  1.00  0.00     0.058 A 
ENDROOT
BRANCH   1   7
ATOM      7  O   UNL     1      -5.895  -0.024 -31.737  1.00  0.00    -0.493 OA
ATOM      8  C   UNL     1      -7.247  -0.411 -31.517  1.00  0.00     0.278 C 
ENDBRANCH   1   7
BRANCH   2   9
ATOM      9  O   UNL     1      -3.407   0.876 -32.072  1.00  0.00    -0.504 OA
ATOM     10  H   UNL     1      -2.947   0.251 -32.666  1.00  0.00     0.293 HD
ENDBRANCH   2   9
BRANCH   5  11
ATOM     11  C   UNL     1      -4.576  -2.105 -27.451  1.00  0.00     0.000 C 
ATOM     12  C   UNL     1      -4.908  -1.546 -26.280  1.00  0.00     0.009 C 
ENDBRANCH   5  11
TORSDOF 3
ENDMDL
MODEL 8
REMARK VINA RESULT:      -5.2      1.838      4.085
REMARK SMILES C=Cc1ccc(O)c(OC)c1
REMARK SMILES IDX 8 1 6 2 5 3 4 4 3 5 11 6 9 7 10 8 7 9 2 11 1 12
REMARK H PARENT 7 10
ROOT
ATOM      1  C   UNL     1       6.898  -2.023 -19.200  1.00  0.00     0.161 A 
ATOM      2  C   UNL     1       6.276  -2.789 -18.209  1.00  0.00     0.157 A 
ATOM      3  C   UNL     1       6.148  -2.328 -16.906  1.00  0.00     0.051 A 
ATOM      4  C   UNL     1       6.649  -1.068 -16.578  1.00  0.00     0.012 A 
ATOM      5  C   UNL     1       7.266  -0.270 -17.553  1.00  0.00    -0.022 A 
ATOM      6  C   UNL     1       7.399  -0.764 -18.863  1.00  0.00     0.058 A 
ENDROOT
BRANCH   1   7
ATOM      7  O   UNL     1       6.952  -2.613 -20.438  1.00  0.00    -0.493 OA
ATOM      8  C   UNL     1       5.907  -2.286 -21.346  1.00  0.00     0.278 C 
ENDBRANCH   1   7
BRANCH   2   9
ATOM      9  O   UNL     1       5.777  -4.028 -18.507  1.00  0.00    -0.504 OA
ATOM     10  H   UNL     1       5.977  -4.157 -19.455  1.00  0.00     0.293 HD
ENDBRANCH   2   9
BRANCH   5  11
ATOM     11  C   UNL     1       7.832   1.048 -17.234  1.00  0.00     0.000 C 
ATOM     12  C   UNL     1       8.762   1.260 -16.292  1.00  0.00     0.009 C 
ENDBRANCH   5  11
TORSDOF 3
ENDMDL
MODEL 9
REMARK VINA RESULT:      -5.1     18.305     20.625
REMARK SMILES C=Cc1ccc(O)c(OC)c1
REMARK SMILES IDX 8 1 6 2 5 3 4 4 3 5 11 6 9 7 10 8 7 9 2 11 1 12
REMARK H PARENT 7 10
ROOT
ATOM      1  C   UNL     1      -9.754   0.452 -31.509  1.00  0.00     0.161 A 
ATOM      2  C   UNL     1     -10.141   0.277 -32.842  1.00  0.00     0.157 A 
ATOM      3  C   UNL     1      -9.260   0.501 -33.890  1.00  0.00     0.051 A 
ATOM      4  C   UNL     1      -7.955   0.906 -33.609  1.00  0.00     0.012 A 
ATOM      5  C   UNL     1      -7.532   1.077 -32.282  1.00  0.00    -0.022 A 
ATOM      6  C   UNL     1      -8.447   0.860 -31.235  1.00  0.00     0.058 A 
ENDROOT
BRANCH   1   7
ATOM      7  O   UNL     1     -10.735   0.197 -30.584  1.00  0.00    -0.493 OA
ATOM      8  C   UNL     1     -10.343  -0.525 -29.423  1.00  0.00     0.278 C 
ENDBRANCH   1   7
BRANCH   2   9
ATOM      9  O   UNL     1     -11.416  -0.118 -33.143  1.00  0.00    -0.504 OA
ATOM     10  H   UNL     1     -11.567   0.199 -34.055  1.00  0.00     0.293 HD
ENDBRANCH   2   9
BRANCH   5  11
ATOM     11  C   UNL     1      -6.175   1.533 -31.951  1.00  0.00     0.000 C 
ATOM     12  C   UNL     1      -5.188   0.725 -31.543  1.00  0.00     0.009 C 
ENDBRANCH   5  11
TORSDOF 3
ENDMDL
MODEL 10
REMARK VINA RESULT:      -5.1     13.242     14.725
REMARK SMILES C=Cc1ccc(O)c(OC)c1
REMARK SMILES IDX 8 1 6 2 5 3 4 4 3 5 11 6 9 7 10 8 7 9 2 11 1 12
REMARK H PARENT 7 10
ROOT
ATOM      1  C   UNL     1      -5.331  -1.628 -27.152  1.00  0.00     0.161 A 
ATOM      2  C   UNL     1      -5.962  -2.191 -28.266  1.00  0.00     0.157 A 
ATOM      3  C   UNL     1      -5.425  -2.077 -29.541  1.00  0.00     0.051 A 
ATOM      4  C   UNL     1      -4.225  -1.388 -29.715  1.00  0.00     0.012 A 
ATOM      5  C   UNL     1      -3.561  -0.824 -28.616  1.00  0.00    -0.022 A 
ATOM      6  C   UNL     1      -4.131  -0.938 -27.335  1.00  0.00     0.058 A 
ENDROOT
BRANCH   1   7
ATOM      7  O   UNL     1      -5.983  -1.820 -25.960  1.00  0.00    -0.493 OA
ATOM      8  C   UNL     1      -5.733  -0.864 -24.936  1.00  0.00     0.278 C 
ENDBRANCH   1   7
BRANCH   2   9
ATOM      9  O   UNL     1      -7.141  -2.871 -28.121  1.00  0.00    -0.504 OA
ATOM     10  H   UNL     1      -7.440  -3.051 -29.033  1.00  0.00     0.293 HD
ENDBRANCH   2   9
BRANCH   5  11
ATOM     11  C   UNL     1      -2.312  -0.066 -28.769  1.00  0.00     0.000 C 
ATOM     12  C   UNL     1      -1.965   0.976 -28.002  1.00  0.00     0.009 C 
ENDBRANCH   5  11
TORSDOF 3
ENDMDL
