MODEL 1
REMARK VINA RESULT:      -9.6      0.000      0.000
REMARK SMILES CCC(C)(C)C(=O)O[C@H]1C[C@@H](C)C=C2C=C[C@H](C)[C@H](CC[C@@H]3C[C@@H](O)CC(=O)O3)[C@H]21
REMARK SMILES IDX 9 1 10 2 11 3 13 4 14 5 30 6 19 7 17 8 16 9 15 10 18 11
REMARK SMILES IDX 12 12 8 13 6 14 7 15 3 16 4 17 5 18 2 19 1 20 20 21 21 22
REMARK SMILES IDX 22 23 23 24 29 25 24 26 27 27 26 28 28 29 25 30
REMARK H PARENT 25 31
ROOT
ATOM      1  C   UNL     1      -7.368   0.186 -29.581  1.00  0.00     0.185 C 
ATOM      2  C   UNL     1      -7.174   1.513 -28.832  1.00  0.00     0.053 C 
ATOM      3  C   UNL     1      -6.549   2.625 -29.687  1.00  0.00     0.012 C 
ATOM      4  C   UNL     1      -6.848   2.488 -31.156  1.00  0.00    -0.020 C 
ATOM      5  C   UNL     1      -7.583   1.501 -31.704  1.00  0.00    -0.045 C 
ATOM      6  C   UNL     1      -8.219   0.390 -30.859  1.00  0.00     0.063 C 
ATOM      7  C   UNL     1      -8.473  -0.923 -31.677  1.00  0.00     0.007 C 
ATOM      8  C   UNL     1      -9.171  -0.595 -33.039  1.00  0.00     0.012 C 
ATOM      9  C   UNL     1      -8.488   0.533 -33.759  1.00  0.00    -0.023 C 
ATOM     10  C   UNL     1      -7.770   1.473 -33.139  1.00  0.00    -0.000 C 
ATOM     11  C   UNL     1     -10.665  -0.263 -32.931  1.00  0.00     0.012 C 
ATOM     12  C   UNL     1      -5.039   2.725 -29.456  1.00  0.00     0.012 C 
ENDROOT
BRANCH   1  13
ATOM     13  O   UNL     1      -6.089  -0.384 -29.941  1.00  0.00    -0.461 OA
BRANCH  13  14
ATOM     14  C   UNL     1      -5.449  -1.145 -29.021  1.00  0.00     0.311 C 
ATOM     15  O   UNL     1      -6.021  -1.909 -28.249  1.00  0.00    -0.252 OA
BRANCH  14  16
ATOM     16  C   UNL     1      -3.920  -0.984 -29.065  1.00  0.00     0.062 C 
ATOM     17  C   UNL     1      -3.551  -0.380 -30.428  1.00  0.00     0.023 C 
ATOM     18  C   UNL     1      -3.336  -2.410 -28.974  1.00  0.00     0.023 C 
BRANCH  16  19
ATOM     19  C   UNL     1      -3.308  -0.163 -27.897  1.00  0.00     0.015 C 
ATOM     20  C   UNL     1      -2.095   0.699 -28.227  1.00  0.00     0.005 C 
ENDBRANCH  16  19
ENDBRANCH  14  16
ENDBRANCH  13  14
ENDBRANCH   1  13
BRANCH   7  21
ATOM     21  C   UNL     1      -9.293  -2.025 -30.946  1.00  0.00     0.009 C 
BRANCH  21  22
ATOM     22  C   UNL     1      -8.658  -3.422 -30.889  1.00  0.00     0.046 C 
BRANCH  22  23
ATOM     23  C   UNL     1      -9.002  -4.166 -29.588  1.00  0.00     0.179 C 
ATOM     24  C   UNL     1     -10.261  -5.000 -29.765  1.00  0.00     0.077 C 
ATOM     25  O   UNL     1      -9.155  -3.184 -28.543  1.00  0.00    -0.462 OA
ATOM     26  C   UNL     1     -10.648  -5.605 -28.432  1.00  0.00     0.129 C 
ATOM     27  C   UNL     1      -9.819  -3.434 -27.395  1.00  0.00     0.308 C 
ATOM     28  C   UNL     1     -10.852  -4.529 -27.388  1.00  0.00     0.154 C 
ATOM     29  O   UNL     1      -9.659  -2.714 -26.413  1.00  0.00    -0.252 OA
BRANCH  26  30
ATOM     30  O   UNL     1      -9.677  -6.568 -28.024  1.00  0.00    -0.392 OA
ATOM     31  H   UNL     1      -9.838  -7.418 -28.467  1.00  0.00     0.210 HD
ENDBRANCH  26  30
ENDBRANCH  22  23
ENDBRANCH  21  22
ENDBRANCH   7  21
TORSDOF 8
ENDMDL
MODEL 2
REMARK VINA RESULT:      -9.2      1.326      2.168
REMARK SMILES CCC(C)(C)C(=O)O[C@H]1C[C@@H](C)C=C2C=C[C@H](C)[C@H](CC[C@@H]3C[C@@H](O)CC(=O)O3)[C@H]21
REMARK SMILES IDX 9 1 10 2 11 3 13 4 14 5 30 6 19 7 17 8 16 9 15 10 18 11
REMARK SMILES IDX 12 12 8 13 6 14 7 15 3 16 4 17 5 18 2 19 1 20 20 21 21 22
REMARK SMILES IDX 22 23 23 24 29 25 24 26 27 27 26 28 28 29 25 30
REMARK H PARENT 25 31
ROOT
ATOM      1  C   UNL     1      -7.237   1.159 -29.266  1.00  0.00     0.185 C 
ATOM      2  C   UNL     1      -6.802   2.468 -28.592  1.00  0.00     0.053 C 
ATOM      3  C   UNL     1      -5.671   3.202 -29.328  1.00  0.00     0.012 C 
ATOM      4  C   UNL     1      -5.653   2.936 -30.809  1.00  0.00    -0.020 C 
ATOM      5  C   UNL     1      -6.521   2.138 -31.460  1.00  0.00    -0.045 C 
ATOM      6  C   UNL     1      -7.658   1.406 -30.736  1.00  0.00     0.063 C 
ATOM      7  C   UNL     1      -8.129   0.117 -31.495  1.00  0.00     0.007 C 
ATOM      8  C   UNL     1      -8.350   0.424 -33.014  1.00  0.00     0.012 C 
ATOM      9  C   UNL     1      -7.192   1.176 -33.606  1.00  0.00    -0.023 C 
ATOM     10  C   UNL     1      -6.371   1.947 -32.887  1.00  0.00    -0.000 C 
ATOM     11  C   UNL     1      -9.639   1.194 -33.331  1.00  0.00     0.012 C 
ATOM     12  C   UNL     1      -4.306   2.888 -28.711  1.00  0.00     0.012 C 
ENDROOT
BRANCH   1  13
ATOM     13  O   UNL     1      -6.165   0.189 -29.230  1.00  0.00    -0.461 OA
BRANCH  13  14
ATOM     14  C   UNL     1      -6.070  -0.615 -28.145  1.00  0.00     0.311 C 
ATOM     15  O   UNL     1      -7.032  -0.962 -27.465  1.00  0.00    -0.252 OA
BRANCH  14  16
ATOM     16  C   UNL     1      -4.632  -1.087 -27.869  1.00  0.00     0.062 C 
ATOM     17  C   UNL     1      -4.708  -2.503 -27.278  1.00  0.00     0.023 C 
ATOM     18  C   UNL     1      -4.063  -0.128 -26.801  1.00  0.00     0.023 C 
BRANCH  16  19
ATOM     19  C   UNL     1      -3.674  -1.034 -29.090  1.00  0.00     0.015 C 
ATOM     20  C   UNL     1      -2.396  -0.220 -28.923  1.00  0.00     0.005 C 
ENDBRANCH  16  19
ENDBRANCH  14  16
ENDBRANCH  13  14
ENDBRANCH   1  13
BRANCH   7  21
ATOM     21  C   UNL     1      -9.406  -0.569 -30.931  1.00  0.00     0.009 C 
BRANCH  21  22
ATOM     22  C   UNL     1      -9.686  -1.997 -31.422  1.00  0.00     0.046 C 
BRANCH  22  23
ATOM     23  C   UNL     1      -9.828  -2.995 -30.260  1.00  0.00     0.179 C 
ATOM     24  C   UNL     1      -8.467  -3.333 -29.674  1.00  0.00     0.077 C 
ATOM     25  O   UNL     1     -10.497  -4.169 -30.765  1.00  0.00    -0.462 OA
ATOM     26  C   UNL     1      -8.629  -4.419 -28.632  1.00  0.00     0.129 C 
ATOM     27  C   UNL     1     -10.443  -5.366 -30.145  1.00  0.00     0.308 C 
ATOM     28  C   UNL     1      -9.283  -5.647 -29.227  1.00  0.00     0.154 C 
ATOM     29  O   UNL     1     -11.264  -6.242 -30.406  1.00  0.00    -0.252 OA
BRANCH  26  30
ATOM     30  O   UNL     1      -9.352  -3.922 -27.506  1.00  0.00    -0.392 OA
ATOM     31  H   UNL     1      -8.759  -3.423 -26.918  1.00  0.00     0.210 HD
ENDBRANCH  26  30
ENDBRANCH  22  23
ENDBRANCH  21  22
ENDBRANCH   7  21
TORSDOF 8
ENDMDL
MODEL 3
REMARK VINA RESULT:      -9.1      2.066      5.843
REMARK SMILES CCC(C)(C)C(=O)O[C@H]1C[C@@H](C)C=C2C=C[C@H](C)[C@H](CC[C@@H]3C[C@@H](O)CC(=O)O3)[C@H]21
REMARK SMILES IDX 9 1 10 2 11 3 13 4 14 5 30 6 19 7 17 8 16 9 15 10 18 11
REMARK SMILES IDX 12 12 8 13 6 14 7 15 3 16 4 17 5 18 2 19 1 20 20 21 21 22
REMARK SMILES IDX 22 23 23 24 29 25 24 26 27 27 26 28 28 29 25 30
REMARK H PARENT 25 31
ROOT
ATOM      1  C   UNL     1      -7.195  -2.030 -30.343  1.00  0.00     0.185 C 
ATOM      2  C   UNL     1      -7.499  -3.535 -30.312  1.00  0.00     0.053 C 
ATOM      3  C   UNL     1      -8.958  -3.869 -29.967  1.00  0.00     0.012 C 
ATOM      4  C   UNL     1      -9.928  -2.791 -30.371  1.00  0.00    -0.020 C 
ATOM      5  C   UNL     1      -9.589  -1.635 -30.973  1.00  0.00    -0.045 C 
ATOM      6  C   UNL     1      -8.137  -1.295 -31.330  1.00  0.00     0.063 C 
ATOM      7  C   UNL     1      -7.883   0.249 -31.430  1.00  0.00     0.007 C 
ATOM      8  C   UNL     1      -8.994   0.934 -32.295  1.00  0.00     0.012 C 
ATOM      9  C   UNL     1     -10.371   0.496 -31.883  1.00  0.00    -0.023 C 
ATOM     10  C   UNL     1     -10.623  -0.671 -31.282  1.00  0.00    -0.000 C 
ATOM     11  C   UNL     1      -8.852   0.719 -33.807  1.00  0.00     0.012 C 
ATOM     12  C   UNL     1      -9.118  -4.203 -28.482  1.00  0.00     0.012 C 
ENDROOT
BRANCH   1  13
ATOM     13  O   UNL     1      -7.339  -1.456 -29.024  1.00  0.00    -0.461 OA
BRANCH  13  14
ATOM     14  C   UNL     1      -6.238  -1.385 -28.238  1.00  0.00     0.311 C 
ATOM     15  O   UNL     1      -5.206  -2.015 -28.448  1.00  0.00    -0.252 OA
BRANCH  14  16
ATOM     16  C   UNL     1      -6.398  -0.398 -27.068  1.00  0.00     0.062 C 
ATOM     17  C   UNL     1      -7.566  -0.886 -26.199  1.00  0.00     0.023 C 
ATOM     18  C   UNL     1      -6.775   0.959 -27.700  1.00  0.00     0.023 C 
BRANCH  16  19
ATOM     19  C   UNL     1      -5.117  -0.168 -26.219  1.00  0.00     0.015 C 
ATOM     20  C   UNL     1      -5.290  -0.172 -24.705  1.00  0.00     0.005 C 
ENDBRANCH  16  19
ENDBRANCH  14  16
ENDBRANCH  13  14
ENDBRANCH   1  13
BRANCH   7  21
ATOM     21  C   UNL     1      -6.490   0.670 -31.978  1.00  0.00     0.009 C 
BRANCH  21  22
ATOM     22  C   UNL     1      -5.766   1.789 -31.216  1.00  0.00     0.046 C 
BRANCH  22  23
ATOM     23  C   UNL     1      -4.302   1.433 -30.909  1.00  0.00     0.179 C 
ATOM     24  C   UNL     1      -4.071  -0.062 -31.059  1.00  0.00     0.077 C 
ATOM     25  O   UNL     1      -4.007   1.886 -29.572  1.00  0.00    -0.462 OA
ATOM     26  C   UNL     1      -2.663  -0.396 -30.616  1.00  0.00     0.129 C 
ATOM     27  C   UNL     1      -2.971   1.411 -28.850  1.00  0.00     0.308 C 
ATOM     28  C   UNL     1      -2.424   0.049 -29.189  1.00  0.00     0.154 C 
ATOM     29  O   UNL     1      -2.556   2.029 -27.873  1.00  0.00    -0.252 OA
BRANCH  26  30
ATOM     30  O   UNL     1      -1.712   0.170 -31.517  1.00  0.00    -0.392 OA
ATOM     31  H   UNL     1      -2.148   0.437 -32.344  1.00  0.00     0.210 HD
ENDBRANCH  26  30
ENDBRANCH  22  23
ENDBRANCH  21  22
ENDBRANCH   7  21
TORSDOF 8
ENDMDL
MODEL 4
REMARK VINA RESULT:      -8.8      1.746      2.340
REMARK SMILES CCC(C)(C)C(=O)O[C@H]1C[C@@H](C)C=C2C=C[C@H](C)[C@H](CC[C@@H]3C[C@@H](O)CC(=O)O3)[C@H]21
REMARK SMILES IDX 9 1 10 2 11 3 13 4 14 5 30 6 19 7 17 8 16 9 15 10 18 11
REMARK SMILES IDX 12 12 8 13 6 14 7 15 3 16 4 17 5 18 2 19 1 20 20 21 21 22
REMARK SMILES IDX 22 23 23 24 29 25 24 26 27 27 26 28 28 29 25 30
REMARK H PARENT 25 31
ROOT
ATOM      1  C   UNL     1      -7.330   0.921 -29.417  1.00  0.00     0.185 C 
ATOM      2  C   UNL     1      -6.813   2.358 -29.264  1.00  0.00     0.053 C 
ATOM      3  C   UNL     1      -6.037   2.874 -30.485  1.00  0.00     0.012 C 
ATOM      4  C   UNL     1      -6.466   2.234 -31.779  1.00  0.00    -0.020 C 
ATOM      5  C   UNL     1      -7.427   1.297 -31.894  1.00  0.00    -0.045 C 
ATOM      6  C   UNL     1      -8.213   0.781 -30.682  1.00  0.00     0.063 C 
ATOM      7  C   UNL     1      -8.793  -0.659 -30.904  1.00  0.00     0.007 C 
ATOM      8  C   UNL     1      -9.507  -0.754 -32.294  1.00  0.00     0.012 C 
ATOM      9  C   UNL     1      -8.662  -0.184 -33.397  1.00  0.00    -0.023 C 
ATOM     10  C   UNL     1      -7.721   0.744 -33.198  1.00  0.00    -0.000 C 
ATOM     11  C   UNL     1     -10.889  -0.089 -32.352  1.00  0.00     0.012 C 
ATOM     12  C   UNL     1      -4.526   2.726 -30.291  1.00  0.00     0.012 C 
ENDROOT
BRANCH   1  13
ATOM     13  O   UNL     1      -6.226  -0.009 -29.496  1.00  0.00    -0.461 OA
BRANCH  13  14
ATOM     14  C   UNL     1      -5.582  -0.332 -28.350  1.00  0.00     0.311 C 
ATOM     15  O   UNL     1      -6.044  -0.139 -27.229  1.00  0.00    -0.252 OA
BRANCH  14  16
ATOM     16  C   UNL     1      -4.220  -1.005 -28.593  1.00  0.00     0.062 C 
ATOM     17  C   UNL     1      -4.139  -1.373 -30.082  1.00  0.00     0.023 C 
ATOM     18  C   UNL     1      -4.227  -2.302 -27.756  1.00  0.00     0.023 C 
BRANCH  16  19
ATOM     19  C   UNL     1      -2.985  -0.177 -28.146  1.00  0.00     0.015 C 
ATOM     20  C   UNL     1      -1.954   0.150 -29.220  1.00  0.00     0.005 C 
ENDBRANCH  16  19
ENDBRANCH  14  16
ENDBRANCH  13  14
ENDBRANCH   1  13
BRANCH   7  21
ATOM     21  C   UNL     1      -9.765  -1.172 -29.804  1.00  0.00     0.009 C 
BRANCH  21  22
ATOM     22  C   UNL     1      -9.224  -2.265 -28.872  1.00  0.00     0.046 C 
BRANCH  22  23
ATOM     23  C   UNL     1      -9.807  -2.162 -27.452  1.00  0.00     0.179 C 
ATOM     24  C   UNL     1     -10.775  -0.995 -27.355  1.00  0.00     0.077 C 
ATOM     25  O   UNL     1      -8.706  -2.022 -26.531  1.00  0.00    -0.462 OA
ATOM     26  C   UNL     1     -11.220  -0.836 -25.916  1.00  0.00     0.129 C 
ATOM     27  C   UNL     1      -8.855  -1.529 -25.284  1.00  0.00     0.308 C 
ATOM     28  C   UNL     1     -10.033  -0.635 -25.001  1.00  0.00     0.154 C 
ATOM     29  O   UNL     1      -7.992  -1.720 -24.431  1.00  0.00    -0.252 OA
BRANCH  26  30
ATOM     30  O   UNL     1     -12.018  -1.951 -25.519  1.00  0.00    -0.392 OA
ATOM     31  H   UNL     1     -11.991  -2.059 -24.553  1.00  0.00     0.210 HD
ENDBRANCH  26  30
ENDBRANCH  22  23
ENDBRANCH  21  22
ENDBRANCH   7  21
TORSDOF 8
ENDMDL
MODEL 5
REMARK VINA RESULT:      -8.8      2.380      5.173
REMARK SMILES CCC(C)(C)C(=O)O[C@H]1C[C@@H](C)C=C2C=C[C@H](C)[C@H](CC[C@@H]3C[C@@H](O)CC(=O)O3)[C@H]21
REMARK SMILES IDX 9 1 10 2 11 3 13 4 14 5 30 6 19 7 17 8 16 9 15 10 18 11
REMARK SMILES IDX 12 12 8 13 6 14 7 15 3 16 4 17 5 18 2 19 1 20 20 21 21 22
REMARK SMILES IDX 22 23 23 24 29 25 24 26 27 27 26 28 28 29 25 30
REMARK H PARENT 25 31
ROOT
ATOM      1  C   UNL     1      -6.124  -1.687 -28.100  1.00  0.00     0.185 C 
ATOM      2  C   UNL     1      -5.028  -1.922 -27.051  1.00  0.00     0.053 C 
ATOM      3  C   UNL     1      -5.062  -0.928 -25.881  1.00  0.00     0.012 C 
ATOM      4  C   UNL     1      -6.438  -0.386 -25.598  1.00  0.00    -0.020 C 
ATOM      5  C   UNL     1      -7.551  -0.713 -26.283  1.00  0.00    -0.045 C 
ATOM      6  C   UNL     1      -7.529  -1.711 -27.447  1.00  0.00     0.063 C 
ATOM      7  C   UNL     1      -8.709  -1.490 -28.456  1.00  0.00     0.007 C 
ATOM      8  C   UNL     1     -10.066  -1.338 -27.690  1.00  0.00     0.012 C 
ATOM      9  C   UNL     1      -9.957  -0.368 -26.548  1.00  0.00    -0.023 C 
ATOM     10  C   UNL     1      -8.808  -0.094 -25.923  1.00  0.00    -0.000 C 
ATOM     11  C   UNL     1     -10.649  -2.652 -27.153  1.00  0.00     0.012 C 
ATOM     12  C   UNL     1      -4.069   0.218 -26.092  1.00  0.00     0.012 C 
ENDROOT
BRANCH   1  13
ATOM     13  O   UNL     1      -5.925  -0.420 -28.766  1.00  0.00    -0.461 OA
BRANCH  13  14
ATOM     14  C   UNL     1      -5.151  -0.399 -29.878  1.00  0.00     0.311 C 
ATOM     15  O   UNL     1      -4.974  -1.372 -30.605  1.00  0.00    -0.252 OA
BRANCH  14  16
ATOM     16  C   UNL     1      -4.541   0.984 -30.161  1.00  0.00     0.062 C 
ATOM     17  C   UNL     1      -5.563   2.045 -29.727  1.00  0.00     0.023 C 
ATOM     18  C   UNL     1      -4.352   1.065 -31.691  1.00  0.00     0.023 C 
BRANCH  16  19
ATOM     19  C   UNL     1      -3.152   1.238 -29.514  1.00  0.00     0.015 C 
ATOM     20  C   UNL     1      -2.300   0.010 -29.216  1.00  0.00     0.005 C 
ENDBRANCH  16  19
ENDBRANCH  14  16
ENDBRANCH  13  14
ENDBRANCH   1  13
BRANCH   7  21
ATOM     21  C   UNL     1      -8.872  -2.580 -29.554  1.00  0.00     0.009 C 
BRANCH  21  22
ATOM     22  C   UNL     1      -8.300  -2.244 -30.939  1.00  0.00     0.046 C 
BRANCH  22  23
ATOM     23  C   UNL     1      -8.779  -0.876 -31.451  1.00  0.00     0.179 C 
ATOM     24  C   UNL     1     -10.144  -0.998 -32.109  1.00  0.00     0.077 C 
ATOM     25  O   UNL     1      -7.787  -0.375 -32.370  1.00  0.00    -0.462 OA
ATOM     26  C   UNL     1     -10.522   0.333 -32.724  1.00  0.00     0.129 C 
ATOM     27  C   UNL     1      -8.051   0.586 -33.280  1.00  0.00     0.308 C 
ATOM     28  C   UNL     1      -9.477   0.784 -33.721  1.00  0.00     0.154 C 
ATOM     29  O   UNL     1      -7.136   1.210 -33.812  1.00  0.00    -0.252 OA
BRANCH  26  30
ATOM     30  O   UNL     1     -10.741   1.306 -31.704  1.00  0.00    -0.392 OA
ATOM     31  H   UNL     1     -10.559   2.199 -32.043  1.00  0.00     0.210 HD
ENDBRANCH  26  30
ENDBRANCH  22  23
ENDBRANCH  21  22
ENDBRANCH   7  21
TORSDOF 8
ENDMDL
MODEL 6
REMARK VINA RESULT:      -8.8      3.109      4.815
REMARK SMILES CCC(C)(C)C(=O)O[C@H]1C[C@@H](C)C=C2C=C[C@H](C)[C@H](CC[C@@H]3C[C@@H](O)CC(=O)O3)[C@H]21
REMARK SMILES IDX 9 1 10 2 11 3 13 4 14 5 30 6 19 7 17 8 16 9 15 10 18 11
REMARK SMILES IDX 12 12 8 13 6 14 7 15 3 16 4 17 5 18 2 19 1 20 20 21 21 22
REMARK SMILES IDX 22 23 23 24 29 25 24 26 27 27 26 28 28 29 25 30
REMARK H PARENT 25 31
ROOT
ATOM      1  C   UNL     1      -7.084   1.256 -29.156  1.00  0.00     0.185 C 
ATOM      2  C   UNL     1      -7.372   2.142 -30.377  1.00  0.00     0.053 C 
ATOM      3  C   UNL     1      -7.636   1.355 -31.669  1.00  0.00     0.012 C 
ATOM      4  C   UNL     1      -8.219  -0.012 -31.427  1.00  0.00    -0.020 C 
ATOM      5  C   UNL     1      -8.491  -0.530 -30.213  1.00  0.00    -0.045 C 
ATOM      6  C   UNL     1      -8.238   0.251 -28.917  1.00  0.00     0.063 C 
ATOM      7  C   UNL     1      -8.026  -0.686 -27.678  1.00  0.00     0.007 C 
ATOM      8  C   UNL     1      -9.138  -1.788 -27.626  1.00  0.00     0.012 C 
ATOM      9  C   UNL     1      -9.325  -2.455 -28.959  1.00  0.00    -0.023 C 
ATOM     10  C   UNL     1      -9.025  -1.871 -30.122  1.00  0.00    -0.000 C 
ATOM     11  C   UNL     1     -10.506  -1.295 -27.136  1.00  0.00     0.012 C 
ATOM     12  C   UNL     1      -6.375   1.254 -32.530  1.00  0.00     0.012 C 
ENDROOT
BRANCH   1  13
ATOM     13  O   UNL     1      -5.845   0.532 -29.336  1.00  0.00    -0.461 OA
BRANCH  13  14
ATOM     14  C   UNL     1      -4.738   1.000 -28.712  1.00  0.00     0.311 C 
ATOM     15  O   UNL     1      -4.435   2.189 -28.658  1.00  0.00    -0.252 OA
BRANCH  14  16
ATOM     16  C   UNL     1      -3.912  -0.109 -28.039  1.00  0.00     0.062 C 
ATOM     17  C   UNL     1      -4.022   0.079 -26.519  1.00  0.00     0.023 C 
ATOM     18  C   UNL     1      -2.448   0.126 -28.469  1.00  0.00     0.023 C 
BRANCH  16  19
ATOM     19  C   UNL     1      -4.285  -1.557 -28.460  1.00  0.00     0.015 C 
ATOM     20  C   UNL     1      -4.857  -2.460 -27.373  1.00  0.00     0.005 C 
ENDBRANCH  16  19
ENDBRANCH  14  16
ENDBRANCH  13  14
ENDBRANCH   1  13
BRANCH   7  21
ATOM     21  C   UNL     1      -7.961   0.026 -26.297  1.00  0.00     0.009 C 
BRANCH  21  22
ATOM     22  C   UNL     1      -7.308  -0.763 -25.153  1.00  0.00     0.046 C 
BRANCH  22  23
ATOM     23  C   UNL     1      -8.329  -1.201 -24.089  1.00  0.00     0.179 C 
ATOM     24  C   UNL     1      -8.550  -0.094 -23.071  1.00  0.00     0.077 C 
ATOM     25  O   UNL     1      -7.834  -2.405 -23.468  1.00  0.00    -0.462 OA
ATOM     26  C   UNL     1      -9.448  -0.605 -21.965  1.00  0.00     0.129 C 
ATOM     27  C   UNL     1      -8.263  -2.837 -22.265  1.00  0.00     0.308 C 
ATOM     28  C   UNL     1      -8.856  -1.834 -21.311  1.00  0.00     0.154 C 
ATOM     29  O   UNL     1      -8.076  -4.001 -21.917  1.00  0.00    -0.252 OA
BRANCH  26  30
ATOM     30  O   UNL     1     -10.762  -0.850 -22.467  1.00  0.00    -0.392 OA
ATOM     31  H   UNL     1     -11.211  -0.009 -22.663  1.00  0.00     0.210 HD
ENDBRANCH  26  30
ENDBRANCH  22  23
ENDBRANCH  21  22
ENDBRANCH   7  21
TORSDOF 8
ENDMDL
MODEL 7
REMARK VINA RESULT:      -8.6      1.427      2.175
REMARK SMILES CCC(C)(C)C(=O)O[C@H]1C[C@@H](C)C=C2C=C[C@H](C)[C@H](CC[C@@H]3C[C@@H](O)CC(=O)O3)[C@H]21
REMARK SMILES IDX 9 1 10 2 11 3 13 4 14 5 30 6 19 7 17 8 16 9 15 10 18 11
REMARK SMILES IDX 12 12 8 13 6 14 7 15 3 16 4 17 5 18 2 19 1 20 20 21 21 22
REMARK SMILES IDX 22 23 23 24 29 25 24 26 27 27 26 28 28 29 25 30
REMARK H PARENT 25 31
ROOT
ATOM      1  C   UNL     1      -7.414   0.994 -29.071  1.00  0.00     0.185 C 
ATOM      2  C   UNL     1      -6.961   2.460 -29.133  1.00  0.00     0.053 C 
ATOM      3  C   UNL     1      -6.234   2.832 -30.433  1.00  0.00     0.012 C 
ATOM      4  C   UNL     1      -6.658   2.000 -31.614  1.00  0.00    -0.020 C 
ATOM      5  C   UNL     1      -7.577   1.016 -31.573  1.00  0.00    -0.045 C 
ATOM      6  C   UNL     1      -8.315   0.641 -30.281  1.00  0.00     0.063 C 
ATOM      7  C   UNL     1      -8.831  -0.840 -30.287  1.00  0.00     0.007 C 
ATOM      8  C   UNL     1      -9.567  -1.160 -31.631  1.00  0.00     0.012 C 
ATOM      9  C   UNL     1      -8.770  -0.714 -32.824  1.00  0.00    -0.023 C 
ATOM     10  C   UNL     1      -7.870   0.273 -32.779  1.00  0.00    -0.000 C 
ATOM     11  C   UNL     1     -10.979  -0.569 -31.745  1.00  0.00     0.012 C 
ATOM     12  C   UNL     1      -4.714   2.778 -30.259  1.00  0.00     0.012 C 
ENDROOT
BRANCH   1  13
ATOM     13  O   UNL     1      -6.271   0.110 -29.049  1.00  0.00    -0.461 OA
BRANCH  13  14
ATOM     14  C   UNL     1      -5.944  -0.479 -27.873  1.00  0.00     0.311 C 
ATOM     15  O   UNL     1      -6.728  -0.620 -26.939  1.00  0.00    -0.252 OA
BRANCH  14  16
ATOM     16  C   UNL     1      -4.494  -0.992 -27.840  1.00  0.00     0.062 C 
ATOM     17  C   UNL     1      -4.517  -2.425 -27.289  1.00  0.00     0.023 C 
ATOM     18  C   UNL     1      -3.740  -0.084 -26.845  1.00  0.00     0.023 C 
BRANCH  16  19
ATOM     19  C   UNL     1      -3.736  -0.917 -29.193  1.00  0.00     0.015 C 
ATOM     20  C   UNL     1      -2.414  -0.159 -29.196  1.00  0.00     0.005 C 
ENDBRANCH  16  19
ENDBRANCH  14  16
ENDBRANCH  13  14
ENDBRANCH   1  13
BRANCH   7  21
ATOM     21  C   UNL     1      -9.757  -1.236 -29.101  1.00  0.00     0.009 C 
BRANCH  21  22
ATOM     22  C   UNL     1      -9.305  -2.433 -28.253  1.00  0.00     0.046 C 
BRANCH  22  23
ATOM     23  C   UNL     1     -10.418  -3.481 -28.083  1.00  0.00     0.179 C 
ATOM     24  C   UNL     1     -10.266  -4.213 -26.760  1.00  0.00     0.077 C 
ATOM     25  O   UNL     1     -10.349  -4.385 -29.205  1.00  0.00    -0.462 OA
ATOM     26  C   UNL     1     -11.288  -5.329 -26.688  1.00  0.00     0.129 C 
ATOM     27  C   UNL     1     -10.902  -5.616 -29.187  1.00  0.00     0.308 C 
ATOM     28  C   UNL     1     -11.135  -6.279 -27.856  1.00  0.00     0.154 C 
ATOM     29  O   UNL     1     -11.109  -6.222 -30.236  1.00  0.00    -0.252 OA
BRANCH  26  30
ATOM     30  O   UNL     1     -12.606  -4.788 -26.609  1.00  0.00    -0.392 OA
ATOM     31  H   UNL     1     -12.616  -4.004 -26.034  1.00  0.00     0.210 HD
ENDBRANCH  26  30
ENDBRANCH  22  23
ENDBRANCH  21  22
ENDBRANCH   7  21
TORSDOF 8
ENDMDL
MODEL 8
REMARK VINA RESULT:      -8.6      3.249      8.542
REMARK SMILES CCC(C)(C)C(=O)O[C@H]1C[C@@H](C)C=C2C=C[C@H](C)[C@H](CC[C@@H]3C[C@@H](O)CC(=O)O3)[C@H]21
REMARK SMILES IDX 9 1 10 2 11 3 13 4 14 5 30 6 19 7 17 8 16 9 15 10 18 11
REMARK SMILES IDX 12 12 8 13 6 14 7 15 3 16 4 17 5 18 2 19 1 20 20 21 21 22
REMARK SMILES IDX 22 23 23 24 29 25 24 26 27 27 26 28 28 29 25 30
REMARK H PARENT 25 31
ROOT
ATOM      1  C   UNL     1      -6.742   0.437 -28.583  1.00  0.00     0.185 C 
ATOM      2  C   UNL     1      -7.558  -0.466 -27.648  1.00  0.00     0.053 C 
ATOM      3  C   UNL     1      -7.198  -1.956 -27.750  1.00  0.00     0.012 C 
ATOM      4  C   UNL     1      -5.773  -2.198 -28.173  1.00  0.00    -0.020 C 
ATOM      5  C   UNL     1      -4.875  -1.231 -28.446  1.00  0.00    -0.045 C 
ATOM      6  C   UNL     1      -5.222   0.259 -28.339  1.00  0.00     0.063 C 
ATOM      7  C   UNL     1      -4.316   1.158 -29.248  1.00  0.00     0.007 C 
ATOM      8  C   UNL     1      -2.808   0.776 -29.071  1.00  0.00     0.012 C 
ATOM      9  C   UNL     1      -2.594  -0.709 -29.155  1.00  0.00    -0.023 C 
ATOM     10  C   UNL     1      -3.544  -1.605 -28.870  1.00  0.00    -0.000 C 
ATOM     11  C   UNL     1      -2.167   1.283 -27.772  1.00  0.00     0.012 C 
ATOM     12  C   UNL     1      -8.164  -2.702 -28.674  1.00  0.00     0.012 C 
ENDROOT
BRANCH   1  13
ATOM     13  O   UNL     1      -7.044   0.142 -29.965  1.00  0.00    -0.461 OA
BRANCH  13  14
ATOM     14  C   UNL     1      -7.886   0.973 -30.625  1.00  0.00     0.311 C 
ATOM     15  O   UNL     1      -7.814   2.198 -30.575  1.00  0.00    -0.252 OA
BRANCH  14  16
ATOM     16  C   UNL     1      -8.923   0.225 -31.479  1.00  0.00     0.062 C 
ATOM     17  C   UNL     1     -10.162  -0.020 -30.606  1.00  0.00     0.023 C 
ATOM     18  C   UNL     1      -8.285  -1.134 -31.837  1.00  0.00     0.023 C 
BRANCH  16  19
ATOM     19  C   UNL     1      -9.301   0.920 -32.816  1.00  0.00     0.015 C 
ATOM     20  C   UNL     1     -10.291   0.186 -33.714  1.00  0.00     0.005 C 
ENDBRANCH  16  19
ENDBRANCH  14  16
ENDBRANCH  13  14
ENDBRANCH   1  13
BRANCH   7  21
ATOM     21  C   UNL     1      -4.471   2.693 -29.049  1.00  0.00     0.009 C 
BRANCH  21  22
ATOM     22  C   UNL     1      -4.587   3.538 -30.325  1.00  0.00     0.046 C 
BRANCH  22  23
ATOM     23  C   UNL     1      -3.774   4.841 -30.238  1.00  0.00     0.179 C 
ATOM     24  C   UNL     1      -3.259   5.057 -28.824  1.00  0.00     0.077 C 
ATOM     25  O   UNL     1      -4.625   5.924 -30.666  1.00  0.00    -0.462 OA
ATOM     26  C   UNL     1      -2.586   6.411 -28.740  1.00  0.00     0.129 C 
ATOM     27  C   UNL     1      -4.379   7.214 -30.358  1.00  0.00     0.308 C 
ATOM     28  C   UNL     1      -3.539   7.515 -29.145  1.00  0.00     0.154 C 
ATOM     29  O   UNL     1      -4.916   8.120 -30.990  1.00  0.00    -0.252 OA
BRANCH  26  30
ATOM     30  O   UNL     1      -1.393   6.421 -29.523  1.00  0.00    -0.392 OA
ATOM     31  H   UNL     1      -0.818   5.678 -29.272  1.00  0.00     0.210 HD
ENDBRANCH  26  30
ENDBRANCH  22  23
ENDBRANCH  21  22
ENDBRANCH   7  21
TORSDOF 8
ENDMDL
MODEL 9
REMARK VINA RESULT:      -8.6      3.119      5.927
REMARK SMILES CCC(C)(C)C(=O)O[C@H]1C[C@@H](C)C=C2C=C[C@H](C)[C@H](CC[C@@H]3C[C@@H](O)CC(=O)O3)[C@H]21
REMARK SMILES IDX 9 1 10 2 11 3 13 4 14 5 30 6 19 7 17 8 16 9 15 10 18 11
REMARK SMILES IDX 12 12 8 13 6 14 7 15 3 16 4 17 5 18 2 19 1 20 20 21 21 22
REMARK SMILES IDX 22 23 23 24 29 25 24 26 27 27 26 28 28 29 25 30
REMARK H PARENT 25 31
ROOT
ATOM      1  C   UNL     1      -5.229   0.500 -29.755  1.00  0.00     0.185 C 
ATOM      2  C   UNL     1      -4.154  -0.306 -30.498  1.00  0.00     0.053 C 
ATOM      3  C   UNL     1      -3.023  -0.818 -29.595  1.00  0.00     0.012 C 
ATOM      4  C   UNL     1      -3.454  -1.046 -28.170  1.00  0.00    -0.020 C 
ATOM      5  C   UNL     1      -4.697  -0.829 -27.697  1.00  0.00    -0.045 C 
ATOM      6  C   UNL     1      -5.835  -0.326 -28.593  1.00  0.00     0.063 C 
ATOM      7  C   UNL     1      -6.953   0.424 -27.788  1.00  0.00     0.007 C 
ATOM      8  C   UNL     1      -7.369  -0.403 -26.525  1.00  0.00     0.012 C 
ATOM      9  C   UNL     1      -6.173  -0.877 -25.749  1.00  0.00    -0.023 C 
ATOM     10  C   UNL     1      -4.968  -1.063 -26.295  1.00  0.00    -0.000 C 
ATOM     11  C   UNL     1      -8.264  -1.614 -26.819  1.00  0.00     0.012 C 
ATOM     12  C   UNL     1      -1.806   0.108 -29.644  1.00  0.00     0.012 C 
ENDROOT
BRANCH   1  13
ATOM     13  O   UNL     1      -4.671   1.727 -29.233  1.00  0.00    -0.461 OA
BRANCH  13  14
ATOM     14  C   UNL     1      -5.130   2.899 -29.734  1.00  0.00     0.311 C 
ATOM     15  O   UNL     1      -6.134   2.996 -30.435  1.00  0.00    -0.252 OA
BRANCH  14  16
ATOM     16  C   UNL     1      -4.286   4.110 -29.304  1.00  0.00     0.062 C 
ATOM     17  C   UNL     1      -3.056   3.581 -28.552  1.00  0.00     0.023 C 
ATOM     18  C   UNL     1      -5.163   4.918 -28.323  1.00  0.00     0.023 C 
BRANCH  16  19
ATOM     19  C   UNL     1      -3.877   5.072 -30.452  1.00  0.00     0.015 C 
ATOM     20  C   UNL     1      -2.761   6.065 -30.150  1.00  0.00     0.005 C 
ENDBRANCH  16  19
ENDBRANCH  14  16
ENDBRANCH  13  14
ENDBRANCH   1  13
BRANCH   7  21
ATOM     21  C   UNL     1      -8.233   0.791 -28.591  1.00  0.00     0.009 C 
BRANCH  21  22
ATOM     22  C   UNL     1      -8.667  -0.206 -29.675  1.00  0.00     0.046 C 
BRANCH  22  23
ATOM     23  C   UNL     1      -9.082   0.494 -30.980  1.00  0.00     0.179 C 
ATOM     24  C   UNL     1     -10.148  -0.312 -31.704  1.00  0.00     0.077 C 
ATOM     25  O   UNL     1      -7.900   0.662 -31.788  1.00  0.00    -0.462 OA
ATOM     26  C   UNL     1     -10.431   0.330 -33.046  1.00  0.00     0.129 C 
ATOM     27  C   UNL     1      -7.947   0.879 -33.119  1.00  0.00     0.308 C 
ATOM     28  C   UNL     1      -9.169   0.430 -33.875  1.00  0.00     0.154 C 
ATOM     29  O   UNL     1      -6.972   1.332 -33.712  1.00  0.00    -0.252 OA
BRANCH  26  30
ATOM     30  O   UNL     1     -11.054   1.602 -32.866  1.00  0.00    -0.392 OA
ATOM     31  H   UNL     1     -11.324   1.970 -33.724  1.00  0.00     0.210 HD
ENDBRANCH  26  30
ENDBRANCH  22  23
ENDBRANCH  21  22
ENDBRANCH   7  21
TORSDOF 8
ENDMDL
MODEL 10
REMARK VINA RESULT:      -8.5      2.963      7.030
REMARK SMILES CCC(C)(C)C(=O)O[C@H]1C[C@@H](C)C=C2C=C[C@H](C)[C@H](CC[C@@H]3C[C@@H](O)CC(=O)O3)[C@H]21
REMARK SMILES IDX 9 1 10 2 11 3 13 4 14 5 30 6 19 7 17 8 16 9 15 10 18 11
REMARK SMILES IDX 12 12 8 13 6 14 7 15 3 16 4 17 5 18 2 19 1 20 20 21 21 22
REMARK SMILES IDX 22 23 23 24 29 25 24 26 27 27 26 28 28 29 25 30
REMARK H PARENT 25 31
ROOT
ATOM      1  C   UNL     1      -8.559  -0.682 -25.343  1.00  0.00     0.185 C 
ATOM      2  C   UNL     1      -8.233  -0.251 -23.906  1.00  0.00     0.053 C 
ATOM      3  C   UNL     1      -6.992  -0.937 -23.316  1.00  0.00     0.012 C 
ATOM      4  C   UNL     1      -5.981  -1.339 -24.357  1.00  0.00    -0.020 C 
ATOM      5  C   UNL     1      -6.117  -1.138 -25.682  1.00  0.00    -0.045 C 
ATOM      6  C   UNL     1      -7.349  -0.447 -26.280  1.00  0.00     0.063 C 
ATOM      7  C   UNL     1      -7.605  -0.852 -27.773  1.00  0.00     0.007 C 
ATOM      8  C   UNL     1      -6.280  -0.762 -28.602  1.00  0.00     0.012 C 
ATOM      9  C   UNL     1      -5.135  -1.438 -27.901  1.00  0.00    -0.023 C 
ATOM     10  C   UNL     1      -5.079  -1.602 -26.576  1.00  0.00    -0.000 C 
ATOM     11  C   UNL     1      -5.848   0.664 -28.967  1.00  0.00     0.012 C 
ATOM     12  C   UNL     1      -7.377  -2.139 -22.451  1.00  0.00     0.012 C 
ENDROOT
BRANCH   1  13
ATOM     13  O   UNL     1      -8.932  -2.078 -25.380  1.00  0.00    -0.461 OA
BRANCH  13  14
ATOM     14  C   UNL     1     -10.191  -2.412 -25.007  1.00  0.00     0.311 C 
ATOM     15  O   UNL     1     -10.573  -2.437 -23.841  1.00  0.00    -0.252 OA
BRANCH  14  16
ATOM     16  C   UNL     1     -11.111  -2.720 -26.201  1.00  0.00     0.062 C 
ATOM     17  C   UNL     1     -10.244  -3.315 -27.320  1.00  0.00     0.023 C 
ATOM     18  C   UNL     1     -11.673  -1.361 -26.671  1.00  0.00     0.023 C 
BRANCH  16  19
ATOM     19  C   UNL     1     -12.326  -3.632 -25.879  1.00  0.00     0.015 C 
ATOM     20  C   UNL     1     -12.407  -4.955 -26.631  1.00  0.00     0.005 C 
ENDBRANCH  16  19
ENDBRANCH  14  16
ENDBRANCH  13  14
ENDBRANCH   1  13
BRANCH   7  21
ATOM     21  C   UNL     1      -8.713  -0.048 -28.511  1.00  0.00     0.009 C 
BRANCH  21  22
ATOM     22  C   UNL     1      -9.388  -0.748 -29.698  1.00  0.00     0.046 C 
BRANCH  22  23
ATOM     23  C   UNL     1      -9.465   0.156 -30.941  1.00  0.00     0.179 C 
ATOM     24  C   UNL     1     -10.399  -0.442 -31.981  1.00  0.00     0.077 C 
ATOM     25  O   UNL     1      -8.128   0.317 -31.455  1.00  0.00    -0.462 OA
ATOM     26  C   UNL     1     -10.343   0.395 -33.241  1.00  0.00     0.129 C 
ATOM     27  C   UNL     1      -7.873   0.711 -32.720  1.00  0.00     0.308 C 
ATOM     28  C   UNL     1      -8.928   0.485 -33.769  1.00  0.00     0.154 C 
ATOM     29  O   UNL     1      -6.765   1.146 -33.027  1.00  0.00    -0.252 OA
BRANCH  26  30
ATOM     30  O   UNL     1     -10.907   1.685 -33.004  1.00  0.00    -0.392 OA
ATOM     31  H   UNL     1     -10.661   2.298 -33.717  1.00  0.00     0.210 HD
ENDBRANCH  26  30
ENDBRANCH  22  23
ENDBRANCH  21  22
ENDBRANCH   7  21
TORSDOF 8
ENDMDL
