MODEL 1
REMARK VINA RESULT:      -5.9      0.000      0.000
REMARK SMILES COc1ccc(O)c(C(=O)O)c1
REMARK SMILES IDX 3 1 12 2 8 3 6 4 5 5 4 6 2 7 1 8 9 9 10 10 11 11 7 13
REMARK H PARENT 11 12 7 14
ROOT
ATOM      1  C   UNL     1      -1.201 -10.434 -27.503  1.00  0.00     0.119 A 
ATOM      2  C   UNL     1      -0.677 -11.659 -27.086  1.00  0.00     0.066 A 
ATOM      3  C   UNL     1       0.288 -11.695 -26.067  1.00  0.00     0.105 A 
ATOM      4  C   UNL     1       0.686 -10.510 -25.437  1.00  0.00     0.130 A 
ATOM      5  C   UNL     1       0.175  -9.290 -25.861  1.00  0.00     0.051 A 
ATOM      6  C   UNL     1      -0.760  -9.255 -26.897  1.00  0.00     0.050 A 
ENDROOT
BRANCH   1   7
ATOM      7  O   UNL     1      -2.136 -10.252 -28.484  1.00  0.00    -0.497 OA
ATOM      8  C   UNL     1      -3.246  -9.414 -28.184  1.00  0.00     0.278 C 
ENDBRANCH   1   7
BRANCH   3   9
ATOM      9  C   UNL     1       0.877 -12.977 -25.621  1.00  0.00     0.339 C 
ATOM     10  O   UNL     1       1.596 -13.640 -26.351  1.00  0.00    -0.246 OA
BRANCH   9  11
ATOM     11  O   UNL     1       0.490 -13.373 -24.393  1.00  0.00    -0.478 OA
ATOM     12  H   UNL     1       0.273 -12.651 -23.774  1.00  0.00     0.297 HD
ENDBRANCH   9  11
ENDBRANCH   3   9
BRANCH   4  13
ATOM     13  O   UNL     1       1.575 -10.475 -24.397  1.00  0.00    -0.507 OA
ATOM     14  H   UNL     1       1.081 -10.595 -23.554  1.00  0.00     0.293 HD
ENDBRANCH   4  13
TORSDOF 4
ENDMDL
MODEL 2
REMARK VINA RESULT:      -5.7      1.916      2.848
REMARK SMILES COc1ccc(O)c(C(=O)O)c1
REMARK SMILES IDX 3 1 12 2 8 3 6 4 5 5 4 6 2 7 1 8 9 9 10 10 11 11 7 13
REMARK H PARENT 11 12 7 14
ROOT
ATOM      1  C   UNL     1      -3.577 -10.251 -27.394  1.00  0.00     0.119 A 
ATOM      2  C   UNL     1      -2.465 -10.907 -26.862  1.00  0.00     0.066 A 
ATOM      3  C   UNL     1      -1.212 -10.272 -26.863  1.00  0.00     0.105 A 
ATOM      4  C   UNL     1      -1.090  -8.966 -27.351  1.00  0.00     0.130 A 
ATOM      5  C   UNL     1      -2.194  -8.318 -27.893  1.00  0.00     0.051 A 
ATOM      6  C   UNL     1      -3.430  -8.965 -27.920  1.00  0.00     0.050 A 
ENDROOT
BRANCH   1   7
ATOM      7  O   UNL     1      -4.847 -10.751 -27.464  1.00  0.00    -0.497 OA
ATOM      8  C   UNL     1      -5.621 -10.741 -26.271  1.00  0.00     0.278 C 
ENDBRANCH   1   7
BRANCH   3   9
ATOM      9  C   UNL     1      -0.013 -10.952 -26.327  1.00  0.00     0.339 C 
ATOM     10  O   UNL     1       0.413 -11.984 -26.821  1.00  0.00    -0.246 OA
BRANCH   9  11
ATOM     11  O   UNL     1       0.503 -10.384 -25.220  1.00  0.00    -0.478 OA
ATOM     12  H   UNL     1       1.080 -10.964 -24.688  1.00  0.00     0.297 HD
ENDBRANCH   9  11
ENDBRANCH   3   9
BRANCH   4  13
ATOM     13  O   UNL     1       0.084  -8.262 -27.328  1.00  0.00    -0.507 OA
ATOM     14  H   UNL     1       0.461  -8.247 -28.236  1.00  0.00     0.293 HD
ENDBRANCH   4  13
TORSDOF 4
ENDMDL
MODEL 3
REMARK VINA RESULT:      -5.5     13.078     15.869
REMARK SMILES COc1ccc(O)c(C(=O)O)c1
REMARK SMILES IDX 3 1 12 2 8 3 6 4 5 5 4 6 2 7 1 8 9 9 10 10 11 11 7 13
REMARK H PARENT 11 12 7 14
ROOT
ATOM      1  C   UNL     1      -7.024  -0.056 -31.688  1.00  0.00     0.119 A 
ATOM      2  C   UNL     1      -8.351  -0.465 -31.548  1.00  0.00     0.066 A 
ATOM      3  C   UNL     1      -9.387   0.335 -32.057  1.00  0.00     0.105 A 
ATOM      4  C   UNL     1      -9.085   1.515 -32.748  1.00  0.00     0.130 A 
ATOM      5  C   UNL     1      -7.765   1.929 -32.876  1.00  0.00     0.051 A 
ATOM      6  C   UNL     1      -6.740   1.148 -32.340  1.00  0.00     0.050 A 
ENDROOT
BRANCH   1   7
ATOM      7  O   UNL     1      -5.923  -0.729 -31.236  1.00  0.00    -0.497 OA
ATOM      8  C   UNL     1      -4.736   0.025 -31.022  1.00  0.00     0.278 C 
ENDBRANCH   1   7
BRANCH   3   9
ATOM      9  C   UNL     1     -10.803  -0.062 -31.903  1.00  0.00     0.339 C 
ATOM     10  O   UNL     1     -11.492  -0.362 -32.866  1.00  0.00    -0.246 OA
BRANCH   9  11
ATOM     11  O   UNL     1     -11.272   0.015 -30.643  1.00  0.00    -0.478 OA
ATOM     12  H   UNL     1     -11.886  -0.699 -30.386  1.00  0.00     0.297 HD
ENDBRANCH   9  11
ENDBRANCH   3   9
BRANCH   4  13
ATOM     13  O   UNL     1     -10.036   2.312 -33.325  1.00  0.00    -0.507 OA
ATOM     14  H   UNL     1     -10.190   3.091 -32.744  1.00  0.00     0.293 HD
ENDBRANCH   4  13
TORSDOF 4
ENDMDL
MODEL 4
REMARK VINA RESULT:      -5.5     10.601     12.007
REMARK SMILES COc1ccc(O)c(C(=O)O)c1
REMARK SMILES IDX 3 1 12 2 8 3 6 4 5 5 4 6 2 7 1 8 9 9 10 10 11 11 7 13
REMARK H PARENT 11 12 7 14
ROOT
ATOM      1  C   UNL     1      -4.992  -1.349 -26.338  1.00  0.00     0.119 A 
ATOM      2  C   UNL     1      -4.280  -0.155 -26.469  1.00  0.00     0.066 A 
ATOM      3  C   UNL     1      -3.484   0.062 -27.606  1.00  0.00     0.105 A 
ATOM      4  C   UNL     1      -3.447  -0.894 -28.628  1.00  0.00     0.130 A 
ATOM      5  C   UNL     1      -4.144  -2.088 -28.491  1.00  0.00     0.051 A 
ATOM      6  C   UNL     1      -4.907  -2.315 -27.345  1.00  0.00     0.050 A 
ENDROOT
BRANCH   1   7
ATOM      7  O   UNL     1      -5.794  -1.695 -25.287  1.00  0.00    -0.497 OA
ATOM      8  C   UNL     1      -6.232  -0.650 -24.426  1.00  0.00     0.278 C 
ENDBRANCH   1   7
BRANCH   3   9
ATOM      9  C   UNL     1      -2.702   1.308 -27.761  1.00  0.00     0.339 C 
ATOM     10  O   UNL     1      -3.239   2.374 -28.018  1.00  0.00    -0.246 OA
BRANCH   9  11
ATOM     11  O   UNL     1      -1.367   1.144 -27.677  1.00  0.00    -0.478 OA
ATOM     12  H   UNL     1      -1.078   0.294 -27.295  1.00  0.00     0.297 HD
ENDBRANCH   9  11
ENDBRANCH   3   9
BRANCH   4  13
ATOM     13  O   UNL     1      -2.744  -0.724 -29.790  1.00  0.00    -0.507 OA
ATOM     14  H   UNL     1      -3.374  -0.492 -30.509  1.00  0.00     0.293 HD
ENDBRANCH   4  13
TORSDOF 4
ENDMDL
MODEL 5
REMARK VINA RESULT:      -5.4     12.228     15.368
REMARK SMILES COc1ccc(O)c(C(=O)O)c1
REMARK SMILES IDX 3 1 12 2 8 3 6 4 5 5 4 6 2 7 1 8 9 9 10 10 11 11 7 13
REMARK H PARENT 11 12 7 14
ROOT
ATOM      1  C   UNL     1      -7.958  -1.596 -31.078  1.00  0.00     0.119 A 
ATOM      2  C   UNL     1      -9.125  -1.198 -31.734  1.00  0.00     0.066 A 
ATOM      3  C   UNL     1      -9.164   0.038 -32.400  1.00  0.00     0.105 A 
ATOM      4  C   UNL     1      -8.021   0.844 -32.449  1.00  0.00     0.130 A 
ATOM      5  C   UNL     1      -6.864   0.453 -31.786  1.00  0.00     0.051 A 
ATOM      6  C   UNL     1      -6.839  -0.760 -31.097  1.00  0.00     0.050 A 
ENDROOT
BRANCH   1   7
ATOM      7  O   UNL     1      -7.783  -2.763 -30.388  1.00  0.00    -0.497 OA
ATOM      8  C   UNL     1      -8.718  -3.810 -30.623  1.00  0.00     0.278 C 
ENDBRANCH   1   7
BRANCH   3   9
ATOM      9  C   UNL     1     -10.394   0.496 -33.083  1.00  0.00     0.339 C 
ATOM     10  O   UNL     1     -10.935  -0.177 -33.946  1.00  0.00    -0.246 OA
BRANCH   9  11
ATOM     11  O   UNL     1     -10.802   1.731 -32.732  1.00  0.00    -0.478 OA
ATOM     12  H   UNL     1     -11.643   2.018 -33.134  1.00  0.00     0.297 HD
ENDBRANCH   9  11
ENDBRANCH   3   9
BRANCH   4  13
ATOM     13  O   UNL     1      -7.966   2.029 -33.131  1.00  0.00    -0.507 OA
ATOM     14  H   UNL     1      -8.746   2.574 -32.881  1.00  0.00     0.293 HD
ENDBRANCH   4  13
TORSDOF 4
ENDMDL
MODEL 6
REMARK VINA RESULT:      -5.4     13.957     15.708
REMARK SMILES COc1ccc(O)c(C(=O)O)c1
REMARK SMILES IDX 3 1 12 2 8 3 6 4 5 5 4 6 2 7 1 8 9 9 10 10 11 11 7 13
REMARK H PARENT 11 12 7 14
ROOT
ATOM      1  C   UNL     1      -6.774   0.789 -32.112  1.00  0.00     0.119 A 
ATOM      2  C   UNL     1      -8.014   1.144 -32.648  1.00  0.00     0.066 A 
ATOM      3  C   UNL     1      -9.123   0.303 -32.461  1.00  0.00     0.105 A 
ATOM      4  C   UNL     1      -8.996  -0.862 -31.695  1.00  0.00     0.130 A 
ATOM      5  C   UNL     1      -7.760  -1.222 -31.173  1.00  0.00     0.051 A 
ATOM      6  C   UNL     1      -6.653  -0.401 -31.389  1.00  0.00     0.050 A 
ENDROOT
BRANCH   1   7
ATOM      7  O   UNL     1      -5.616   1.506 -32.223  1.00  0.00    -0.497 OA
ATOM      8  C   UNL     1      -4.439   0.942 -31.656  1.00  0.00     0.278 C 
ENDBRANCH   1   7
BRANCH   3   9
ATOM      9  C   UNL     1     -10.442   0.642 -33.037  1.00  0.00     0.339 C 
ATOM     10  O   UNL     1     -11.116  -0.188 -33.627  1.00  0.00    -0.246 OA
BRANCH   9  11
ATOM     11  O   UNL     1     -10.786   1.940 -32.923  1.00  0.00    -0.478 OA
ATOM     12  H   UNL     1     -11.528   2.119 -32.316  1.00  0.00     0.297 HD
ENDBRANCH   9  11
ENDBRANCH   3   9
BRANCH   4  13
ATOM     13  O   UNL     1     -10.046  -1.696 -31.419  1.00  0.00    -0.507 OA
ATOM     14  H   UNL     1     -10.886  -1.204 -31.557  1.00  0.00     0.293 HD
ENDBRANCH   4  13
TORSDOF 4
ENDMDL
MODEL 7
REMARK VINA RESULT:      -5.4     12.796     14.850
REMARK SMILES COc1ccc(O)c(C(=O)O)c1
REMARK SMILES IDX 3 1 12 2 8 3 6 4 5 5 4 6 2 7 1 8 9 9 10 10 11 11 7 13
REMARK H PARENT 11 12 7 14
ROOT
ATOM      1  C   UNL     1       7.288  -0.064 -17.552  1.00  0.00     0.119 A 
ATOM      2  C   UNL     1       7.184  -0.588 -18.842  1.00  0.00     0.066 A 
ATOM      3  C   UNL     1       6.671  -1.881 -19.032  1.00  0.00     0.105 A 
ATOM      4  C   UNL     1       6.218  -2.623 -17.935  1.00  0.00     0.130 A 
ATOM      5  C   UNL     1       6.333  -2.108 -16.650  1.00  0.00     0.051 A 
ATOM      6  C   UNL     1       6.874  -0.835 -16.461  1.00  0.00     0.050 A 
ENDROOT
BRANCH   1   7
ATOM      7  O   UNL     1       7.772   1.170 -17.222  1.00  0.00    -0.497 OA
ATOM      8  C   UNL     1       8.764   1.235 -16.204  1.00  0.00     0.278 C 
ENDBRANCH   1   7
BRANCH   3   9
ATOM      9  C   UNL     1       6.571  -2.470 -20.385  1.00  0.00     0.339 C 
ATOM     10  O   UNL     1       7.171  -3.491 -20.685  1.00  0.00    -0.246 OA
BRANCH   9  11
ATOM     11  O   UNL     1       5.841  -1.749 -21.257  1.00  0.00    -0.478 OA
ATOM     12  H   UNL     1       5.671  -2.183 -22.114  1.00  0.00     0.297 HD
ENDBRANCH   9  11
ENDBRANCH   3   9
BRANCH   4  13
ATOM     13  O   UNL     1       5.650  -3.863 -18.049  1.00  0.00    -0.507 OA
ATOM     14  H   UNL     1       6.327  -4.491 -18.390  1.00  0.00     0.293 HD
ENDBRANCH   4  13
TORSDOF 4
ENDMDL
MODEL 8
REMARK VINA RESULT:      -5.3      1.580      4.540
REMARK SMILES COc1ccc(O)c(C(=O)O)c1
REMARK SMILES IDX 3 1 12 2 8 3 6 4 5 5 4 6 2 7 1 8 9 9 10 10 11 11 7 13
REMARK H PARENT 11 12 7 14
ROOT
ATOM      1  C   UNL     1      -0.127 -11.164 -26.750  1.00  0.00     0.119 A 
ATOM      2  C   UNL     1      -1.498 -11.281 -26.991  1.00  0.00     0.066 A 
ATOM      3  C   UNL     1      -2.242 -10.147 -27.355  1.00  0.00     0.105 A 
ATOM      4  C   UNL     1      -1.601  -8.914 -27.525  1.00  0.00     0.130 A 
ATOM      5  C   UNL     1      -0.240  -8.795 -27.272  1.00  0.00     0.051 A 
ATOM      6  C   UNL     1       0.490  -9.917 -26.878  1.00  0.00     0.050 A 
ENDROOT
BRANCH   1   7
ATOM      7  O   UNL     1       0.713 -12.178 -26.384  1.00  0.00    -0.497 OA
ATOM      8  C   UNL     1       0.850 -12.445 -24.993  1.00  0.00     0.278 C 
ENDBRANCH   1   7
BRANCH   3   9
ATOM      9  C   UNL     1      -3.699 -10.236 -27.594  1.00  0.00     0.339 C 
ATOM     10  O   UNL     1      -4.426 -10.904 -26.876  1.00  0.00    -0.246 OA
BRANCH   9  11
ATOM     11  O   UNL     1      -4.125  -9.595 -28.700  1.00  0.00    -0.478 OA
ATOM     12  H   UNL     1      -3.468  -9.526 -29.417  1.00  0.00     0.297 HD
ENDBRANCH   9  11
ENDBRANCH   3   9
BRANCH   4  13
ATOM     13  O   UNL     1      -2.250  -7.781 -27.937  1.00  0.00    -0.507 OA
ATOM     14  H   UNL     1      -2.991  -7.598 -27.316  1.00  0.00     0.293 HD
ENDBRANCH   4  13
TORSDOF 4
ENDMDL
MODEL 9
REMARK VINA RESULT:      -5.2      2.943      5.332
REMARK SMILES COc1ccc(O)c(C(=O)O)c1
REMARK SMILES IDX 3 1 12 2 8 3 6 4 5 5 4 6 2 7 1 8 9 9 10 10 11 11 7 13
REMARK H PARENT 11 12 7 14
ROOT
ATOM      1  C   UNL     1      -2.278 -10.642 -27.567  1.00  0.00     0.119 A 
ATOM      2  C   UNL     1      -3.395 -11.328 -27.085  1.00  0.00     0.066 A 
ATOM      3  C   UNL     1      -4.589 -10.632 -26.836  1.00  0.00     0.105 A 
ATOM      4  C   UNL     1      -4.673  -9.263 -27.117  1.00  0.00     0.130 A 
ATOM      5  C   UNL     1      -3.558  -8.578 -27.584  1.00  0.00     0.051 A 
ATOM      6  C   UNL     1      -2.364  -9.267 -27.800  1.00  0.00     0.050 A 
ENDROOT
BRANCH   1   7
ATOM      7  O   UNL     1      -1.058 -11.190 -27.845  1.00  0.00    -0.497 OA
ATOM      8  C   UNL     1       0.018 -10.870 -26.971  1.00  0.00     0.278 C 
ENDBRANCH   1   7
BRANCH   3   9
ATOM      9  C   UNL     1      -5.781 -11.328 -26.304  1.00  0.00     0.339 C 
ATOM     10  O   UNL     1      -6.027 -11.354 -25.108  1.00  0.00    -0.246 OA
BRANCH   9  11
ATOM     11  O   UNL     1      -6.506 -11.984 -27.230  1.00  0.00    -0.478 OA
ATOM     12  H   UNL     1      -6.969 -11.414 -27.872  1.00  0.00     0.297 HD
ENDBRANCH   9  11
ENDBRANCH   3   9
BRANCH   4  13
ATOM     13  O   UNL     1      -5.820  -8.532 -26.958  1.00  0.00    -0.507 OA
ATOM     14  H   UNL     1      -5.982  -8.405 -25.996  1.00  0.00     0.293 HD
ENDBRANCH   4  13
TORSDOF 4
ENDMDL
MODEL 10
REMARK VINA RESULT:      -5.2     11.353     13.086
REMARK SMILES COc1ccc(O)c(C(=O)O)c1
REMARK SMILES IDX 3 1 12 2 8 3 6 4 5 5 4 6 2 7 1 8 9 9 10 10 11 11 7 13
REMARK H PARENT 11 12 7 14
ROOT
ATOM      1  C   UNL     1      -4.657  -0.032 -28.250  1.00  0.00     0.119 A 
ATOM      2  C   UNL     1      -5.009   0.701 -29.386  1.00  0.00     0.066 A 
ATOM      3  C   UNL     1      -4.393   0.421 -30.616  1.00  0.00     0.105 A 
ATOM      4  C   UNL     1      -3.467  -0.625 -30.715  1.00  0.00     0.130 A 
ATOM      5  C   UNL     1      -3.107  -1.345 -29.582  1.00  0.00     0.051 A 
ATOM      6  C   UNL     1      -3.696  -1.043 -28.354  1.00  0.00     0.050 A 
ENDROOT
BRANCH   1   7
ATOM      7  O   UNL     1      -5.167   0.138 -26.994  1.00  0.00    -0.497 OA
ATOM      8  C   UNL     1      -4.991  -0.926 -26.066  1.00  0.00     0.278 C 
ENDBRANCH   1   7
BRANCH   3   9
ATOM      9  C   UNL     1      -4.730   1.196 -31.830  1.00  0.00     0.339 C 
ATOM     10  O   UNL     1      -5.888   1.418 -32.148  1.00  0.00    -0.246 OA
BRANCH   9  11
ATOM     11  O   UNL     1      -3.668   1.555 -32.577  1.00  0.00    -0.478 OA
ATOM     12  H   UNL     1      -3.067   2.200 -32.160  1.00  0.00     0.297 HD
ENDBRANCH   9  11
ENDBRANCH   3   9
BRANCH   4  13
ATOM     13  O   UNL     1      -2.875  -0.995 -31.892  1.00  0.00    -0.507 OA
ATOM     14  H   UNL     1      -3.342  -0.550 -32.634  1.00  0.00     0.293 HD
ENDBRANCH   4  13
TORSDOF 4
ENDMDL
