MODEL 1
REMARK VINA RESULT:      -7.1      0.000      0.000
REMARK SMILES COc1ccc(C(O)=CC=CO)cc1
REMARK SMILES IDX 9 1 7 2 10 3 11 4 12 5 6 7 5 8 13 9 4 10 14 11 3 12 2 13
REMARK SMILES IDX 1 14 8 15
REMARK H PARENT 12 6 8 16
ROOT
ATOM      1  C   UNL     1       5.766  -3.220 -20.538  1.00  0.00     0.050 C 
ATOM      2  C   UNL     1       6.176  -3.135 -19.259  1.00  0.00     0.122 C 
ENDROOT
BRANCH   1   3
ATOM      3  C   UNL     1       5.739  -2.141 -21.507  1.00  0.00     0.042 C 
ATOM      4  C   UNL     1       5.088  -2.234 -22.671  1.00  0.00     0.183 C 
BRANCH   4   5
ATOM      5  O   UNL     1       5.029  -1.240 -23.609  1.00  0.00    -0.516 OA
ATOM      6  H   UNL     1       5.719  -1.398 -24.277  1.00  0.00     0.292 HD
ENDBRANCH   4   5
ENDBRANCH   1   3
BRANCH   2   7
ATOM      7  C   UNL     1       6.707  -1.922 -18.623  1.00  0.00     0.017 A 
ATOM      8  C   UNL     1       7.779  -1.236 -19.206  1.00  0.00     0.016 A 
ATOM      9  C   UNL     1       6.146  -1.421 -17.443  1.00  0.00     0.016 A 
ATOM     10  C   UNL     1       8.297  -0.080 -18.611  1.00  0.00     0.047 A 
ATOM     11  C   UNL     1       6.665  -0.268 -16.849  1.00  0.00     0.047 A 
ATOM     12  C   UNL     1       7.743   0.408 -17.427  1.00  0.00     0.118 A 
BRANCH  12  13
ATOM     13  O   UNL     1       8.154   1.518 -16.743  1.00  0.00    -0.497 OA
ATOM     14  C   UNL     1       9.143   1.326 -15.740  1.00  0.00     0.278 C 
ENDBRANCH  12  13
ENDBRANCH   2   7
BRANCH   2  15
ATOM     15  O   UNL     1       6.112  -4.214 -18.400  1.00  0.00    -0.507 OA
ATOM     16  H   UNL     1       6.161  -3.889 -17.487  1.00  0.00     0.293 HD
ENDBRANCH   2  15
TORSDOF 5
ENDMDL
MODEL 2
REMARK VINA RESULT:      -7.0     13.731     15.578
REMARK SMILES COc1ccc(C(O)=CC=CO)cc1
REMARK SMILES IDX 9 1 7 2 10 3 11 4 12 5 6 7 5 8 13 9 4 10 14 11 3 12 2 13
REMARK SMILES IDX 1 14 8 15
REMARK H PARENT 12 6 8 16
ROOT
ATOM      1  C   UNL     1      -4.358  -9.453 -27.608  1.00  0.00     0.050 C 
ATOM      2  C   UNL     1      -3.049  -9.197 -27.784  1.00  0.00     0.122 C 
ENDROOT
BRANCH   1   3
ATOM      3  C   UNL     1      -4.927 -10.597 -26.921  1.00  0.00     0.042 C 
ATOM      4  C   UNL     1      -5.642 -10.481 -25.797  1.00  0.00     0.183 C 
BRANCH   4   5
ATOM      5  O   UNL     1      -6.202 -11.530 -25.121  1.00  0.00    -0.516 OA
ATOM      6  H   UNL     1      -6.966 -11.858 -25.629  1.00  0.00     0.292 HD
ENDBRANCH   4   5
ENDBRANCH   1   3
BRANCH   2   7
ATOM      7  C   UNL     1      -1.951 -10.030 -27.273  1.00  0.00     0.017 A 
ATOM      8  C   UNL     1      -1.182  -9.588 -26.190  1.00  0.00     0.016 A 
ATOM      9  C   UNL     1      -1.666 -11.276 -27.841  1.00  0.00     0.016 A 
ATOM     10  C   UNL     1      -0.131 -10.368 -25.693  1.00  0.00     0.047 A 
ATOM     11  C   UNL     1      -0.616 -12.053 -27.344  1.00  0.00     0.047 A 
ATOM     12  C   UNL     1       0.158 -11.605 -26.272  1.00  0.00     0.118 A 
BRANCH  12  13
ATOM     13  O   UNL     1       1.154 -12.459 -25.888  1.00  0.00    -0.497 OA
ATOM     14  C   UNL     1       0.934 -13.210 -24.700  1.00  0.00     0.278 C 
ENDBRANCH  12  13
ENDBRANCH   2   7
BRANCH   2  15
ATOM     15  O   UNL     1      -2.611  -8.103 -28.502  1.00  0.00    -0.507 OA
ATOM     16  H   UNL     1      -3.376  -7.674 -28.915  1.00  0.00     0.293 HD
ENDBRANCH   2  15
TORSDOF 5
ENDMDL
MODEL 3
REMARK VINA RESULT:      -6.4      1.722      6.246
REMARK SMILES COc1ccc(C(O)=CC=CO)cc1
REMARK SMILES IDX 9 1 7 2 10 3 11 4 12 5 6 7 5 8 13 9 4 10 14 11 3 12 2 13
REMARK SMILES IDX 1 14 8 15
REMARK H PARENT 12 6 8 16
ROOT
ATOM      1  C   UNL     1       9.330   1.270 -15.731  1.00  0.00     0.050 C 
ATOM      2  C   UNL     1       8.191   1.279 -16.447  1.00  0.00     0.122 C 
ENDROOT
BRANCH   1   3
ATOM      3  C   UNL     1      10.223   0.143 -15.548  1.00  0.00     0.042 C 
ATOM      4  C   UNL     1      11.371   0.235 -14.868  1.00  0.00     0.183 C 
BRANCH   4   5
ATOM      5  O   UNL     1      12.238  -0.803 -14.665  1.00  0.00    -0.516 OA
ATOM      6  H   UNL     1      13.009  -0.687 -15.248  1.00  0.00     0.292 HD
ENDBRANCH   4   5
ENDBRANCH   1   3
BRANCH   2   7
ATOM      7  C   UNL     1       7.664   0.137 -17.208  1.00  0.00     0.017 A 
ATOM      8  C   UNL     1       8.134  -0.119 -18.501  1.00  0.00     0.016 A 
ATOM      9  C   UNL     1       6.706  -0.718 -16.654  1.00  0.00     0.016 A 
ATOM     10  C   UNL     1       7.641  -1.202 -19.240  1.00  0.00     0.047 A 
ATOM     11  C   UNL     1       6.214  -1.798 -17.393  1.00  0.00     0.047 A 
ATOM     12  C   UNL     1       6.675  -2.045 -18.688  1.00  0.00     0.118 A 
BRANCH  12  13
ATOM     13  O   UNL     1       6.110  -3.129 -19.300  1.00  0.00    -0.497 OA
ATOM     14  C   UNL     1       6.081  -3.122 -20.721  1.00  0.00     0.278 C 
ENDBRANCH  12  13
ENDBRANCH   2   7
BRANCH   2  15
ATOM     15  O   UNL     1       7.381   2.395 -16.514  1.00  0.00    -0.507 OA
ATOM     16  H   UNL     1       7.868   3.156 -16.160  1.00  0.00     0.293 HD
ENDBRANCH   2  15
TORSDOF 5
ENDMDL
MODEL 4
REMARK VINA RESULT:      -6.3      3.169      5.962
REMARK SMILES COc1ccc(C(O)=CC=CO)cc1
REMARK SMILES IDX 9 1 7 2 10 3 11 4 12 5 6 7 5 8 13 9 4 10 14 11 3 12 2 13
REMARK SMILES IDX 1 14 8 15
REMARK H PARENT 12 6 8 16
ROOT
ATOM      1  C   UNL     1       4.152  -0.596 -25.883  1.00  0.00     0.050 C 
ATOM      2  C   UNL     1       3.546  -1.193 -24.841  1.00  0.00     0.122 C 
ENDROOT
BRANCH   1   3
ATOM      3  C   UNL     1       5.581  -0.418 -26.060  1.00  0.00     0.042 C 
ATOM      4  C   UNL     1       6.110   0.094 -27.177  1.00  0.00     0.183 C 
BRANCH   4   5
ATOM      5  O   UNL     1       7.448   0.287 -27.384  1.00  0.00    -0.516 OA
ATOM      6  H   UNL     1       7.566   1.002 -28.033  1.00  0.00     0.292 HD
ENDBRANCH   4   5
ENDBRANCH   1   3
BRANCH   2   7
ATOM      7  C   UNL     1       4.239  -1.808 -23.700  1.00  0.00     0.017 A 
ATOM      8  C   UNL     1       3.731  -2.976 -23.119  1.00  0.00     0.016 A 
ATOM      9  C   UNL     1       5.418  -1.255 -23.190  1.00  0.00     0.016 A 
ATOM     10  C   UNL     1       4.379  -3.572 -22.030  1.00  0.00     0.047 A 
ATOM     11  C   UNL     1       6.064  -1.851 -22.103  1.00  0.00     0.047 A 
ATOM     12  C   UNL     1       5.548  -3.009 -21.516  1.00  0.00     0.118 A 
BRANCH  12  13
ATOM     13  O   UNL     1       6.274  -3.486 -20.460  1.00  0.00    -0.497 OA
ATOM     14  C   UNL     1       6.750  -2.529 -19.522  1.00  0.00     0.278 C 
ENDBRANCH  12  13
ENDBRANCH   2   7
BRANCH   2  15
ATOM     15  O   UNL     1       2.171  -1.264 -24.741  1.00  0.00    -0.507 OA
ATOM     16  H   UNL     1       1.792  -0.423 -25.041  1.00  0.00     0.293 HD
ENDBRANCH   2  15
TORSDOF 5
ENDMDL
MODEL 5
REMARK VINA RESULT:      -6.2     12.833     14.610
REMARK SMILES COc1ccc(C(O)=CC=CO)cc1
REMARK SMILES IDX 9 1 7 2 10 3 11 4 12 5 6 7 5 8 13 9 4 10 14 11 3 12 2 13
REMARK SMILES IDX 1 14 8 15
REMARK H PARENT 12 6 8 16
ROOT
ATOM      1  C   UNL     1      -1.626  -8.463 -27.439  1.00  0.00     0.050 C 
ATOM      2  C   UNL     1      -0.363  -8.886 -27.249  1.00  0.00     0.122 C 
ENDROOT
BRANCH   1   3
ATOM      3  C   UNL     1      -2.836  -9.174 -27.075  1.00  0.00     0.042 C 
ATOM      4  C   UNL     1      -3.688  -9.660 -27.984  1.00  0.00     0.183 C 
BRANCH   4   5
ATOM      5  O   UNL     1      -4.835 -10.343 -27.686  1.00  0.00    -0.516 OA
ATOM      6  H   UNL     1      -5.222  -9.968 -26.875  1.00  0.00     0.292 HD
ENDBRANCH   4   5
ENDBRANCH   1   3
BRANCH   2   7
ATOM      7  C   UNL     1       0.015 -10.149 -26.598  1.00  0.00     0.017 A 
ATOM      8  C   UNL     1      -0.330 -11.371 -27.187  1.00  0.00     0.016 A 
ATOM      9  C   UNL     1       0.734 -10.155 -25.398  1.00  0.00     0.016 A 
ATOM     10  C   UNL     1       0.020 -12.582 -26.578  1.00  0.00     0.047 A 
ATOM     11  C   UNL     1       1.082 -11.364 -24.791  1.00  0.00     0.047 A 
ATOM     12  C   UNL     1       0.726 -12.583 -25.374  1.00  0.00     0.118 A 
BRANCH  12  13
ATOM     13  O   UNL     1       1.125 -13.689 -24.676  1.00  0.00    -0.497 OA
ATOM     14  C   UNL     1       0.428 -13.973 -23.469  1.00  0.00     0.278 C 
ENDBRANCH  12  13
ENDBRANCH   2   7
BRANCH   2  15
ATOM     15  O   UNL     1       0.724  -8.154 -27.682  1.00  0.00    -0.507 OA
ATOM     16  H   UNL     1       0.435  -7.248 -27.872  1.00  0.00     0.293 HD
ENDBRANCH   2  15
TORSDOF 5
ENDMDL
MODEL 6
REMARK VINA RESULT:      -6.1     13.086     15.369
REMARK SMILES COc1ccc(C(O)=CC=CO)cc1
REMARK SMILES IDX 9 1 7 2 10 3 11 4 12 5 6 7 5 8 13 9 4 10 14 11 3 12 2 13
REMARK SMILES IDX 1 14 8 15
REMARK H PARENT 12 6 8 16
ROOT
ATOM      1  C   UNL     1       0.917 -10.127 -26.093  1.00  0.00     0.050 C 
ATOM      2  C   UNL     1       0.162  -9.395 -26.932  1.00  0.00     0.122 C 
ENDROOT
BRANCH   1   3
ATOM      3  C   UNL     1       0.438 -11.110 -25.140  1.00  0.00     0.042 C 
ATOM      4  C   UNL     1       0.792 -12.399 -25.195  1.00  0.00     0.183 C 
BRANCH   4   5
ATOM      5  O   UNL     1       0.372 -13.357 -24.314  1.00  0.00    -0.516 OA
ATOM      6  H   UNL     1       1.152 -13.796 -23.931  1.00  0.00     0.292 HD
ENDBRANCH   4   5
ENDBRANCH   1   3
BRANCH   2   7
ATOM      7  C   UNL     1      -1.300  -9.492 -27.054  1.00  0.00     0.017 A 
ATOM      8  C   UNL     1      -2.105  -8.403 -26.701  1.00  0.00     0.016 A 
ATOM      9  C   UNL     1      -1.908 -10.655 -27.536  1.00  0.00     0.016 A 
ATOM     10  C   UNL     1      -3.499  -8.480 -26.809  1.00  0.00     0.047 A 
ATOM     11  C   UNL     1      -3.300 -10.731 -27.643  1.00  0.00     0.047 A 
ATOM     12  C   UNL     1      -4.102  -9.648 -27.278  1.00  0.00     0.118 A 
BRANCH  12  13
ATOM     13  O   UNL     1      -5.445  -9.855 -27.428  1.00  0.00    -0.497 OA
ATOM     14  C   UNL     1      -6.028 -10.887 -26.642  1.00  0.00     0.278 C 
ENDBRANCH  12  13
ENDBRANCH   2   7
BRANCH   2  15
ATOM     15  O   UNL     1       0.713  -8.444 -27.767  1.00  0.00    -0.507 OA
ATOM     16  H   UNL     1       0.469  -7.563 -27.439  1.00  0.00     0.293 HD
ENDBRANCH   2  15
TORSDOF 5
ENDMDL
MODEL 7
REMARK VINA RESULT:      -6.0     18.222     20.393
REMARK SMILES COc1ccc(C(O)=CC=CO)cc1
REMARK SMILES IDX 9 1 7 2 10 3 11 4 12 5 6 7 5 8 13 9 4 10 14 11 3 12 2 13
REMARK SMILES IDX 1 14 8 15
REMARK H PARENT 12 6 8 16
ROOT
ATOM      1  C   UNL     1      -8.539  -4.256 -29.031  1.00  0.00     0.050 C 
ATOM      2  C   UNL     1      -8.417  -2.917 -28.982  1.00  0.00     0.122 C 
ENDROOT
BRANCH   1   3
ATOM      3  C   UNL     1      -9.336  -5.014 -29.976  1.00  0.00     0.042 C 
ATOM      4  C   UNL     1     -10.599  -5.374 -29.728  1.00  0.00     0.183 C 
BRANCH   4   5
ATOM      5  O   UNL     1     -11.389  -6.081 -30.593  1.00  0.00    -0.516 OA
ATOM      6  H   UNL     1     -10.990  -6.957 -30.738  1.00  0.00     0.292 HD
ENDBRANCH   4   5
ENDBRANCH   1   3
BRANCH   2   7
ATOM      7  C   UNL     1      -9.055  -1.977 -29.915  1.00  0.00     0.017 A 
ATOM      8  C   UNL     1      -8.725  -2.008 -31.275  1.00  0.00     0.016 A 
ATOM      9  C   UNL     1     -10.008  -1.055 -29.470  1.00  0.00     0.016 A 
ATOM     10  C   UNL     1      -9.323  -1.118 -32.175  1.00  0.00     0.047 A 
ATOM     11  C   UNL     1     -10.603  -0.167 -30.370  1.00  0.00     0.047 A 
ATOM     12  C   UNL     1     -10.263  -0.191 -31.725  1.00  0.00     0.118 A 
BRANCH  12  13
ATOM     13  O   UNL     1     -10.916   0.732 -32.494  1.00  0.00    -0.497 OA
ATOM     14  C   UNL     1     -10.108   1.610 -33.268  1.00  0.00     0.278 C 
ENDBRANCH  12  13
ENDBRANCH   2   7
BRANCH   2  15
ATOM     15  O   UNL     1      -7.672  -2.288 -28.004  1.00  0.00    -0.507 OA
ATOM     16  H   UNL     1      -7.886  -1.342 -28.009  1.00  0.00     0.293 HD
ENDBRANCH   2  15
TORSDOF 5
ENDMDL
MODEL 8
REMARK VINA RESULT:      -5.9     13.196     14.526
REMARK SMILES COc1ccc(C(O)=CC=CO)cc1
REMARK SMILES IDX 9 1 7 2 10 3 11 4 12 5 6 7 5 8 13 9 4 10 14 11 3 12 2 13
REMARK SMILES IDX 1 14 8 15
REMARK H PARENT 12 6 8 16
ROOT
ATOM      1  C   UNL     1      -2.597   0.210 -29.900  1.00  0.00     0.050 C 
ATOM      2  C   UNL     1      -2.471   0.266 -28.562  1.00  0.00     0.122 C 
ENDROOT
BRANCH   1   3
ATOM      3  C   UNL     1      -3.688  -0.399 -30.637  1.00  0.00     0.042 C 
ATOM      4  C   UNL     1      -4.805   0.266 -30.952  1.00  0.00     0.183 C 
BRANCH   4   5
ATOM      5  O   UNL     1      -5.854  -0.266 -31.651  1.00  0.00    -0.516 OA
ATOM      6  H   UNL     1      -5.802  -1.237 -31.605  1.00  0.00     0.292 HD
ENDBRANCH   4   5
ENDBRANCH   1   3
BRANCH   2   7
ATOM      7  C   UNL     1      -3.450  -0.260 -27.600  1.00  0.00     0.017 A 
ATOM      8  C   UNL     1      -3.791   0.489 -26.468  1.00  0.00     0.016 A 
ATOM      9  C   UNL     1      -4.068  -1.498 -27.803  1.00  0.00     0.016 A 
ATOM     10  C   UNL     1      -4.721   0.001 -25.541  1.00  0.00     0.047 A 
ATOM     11  C   UNL     1      -4.995  -1.984 -26.877  1.00  0.00     0.047 A 
ATOM     12  C   UNL     1      -5.324  -1.241 -25.741  1.00  0.00     0.118 A 
BRANCH  12  13
ATOM     13  O   UNL     1      -6.240  -1.832 -24.916  1.00  0.00    -0.497 OA
ATOM     14  C   UNL     1      -6.988  -0.973 -24.065  1.00  0.00     0.278 C 
ENDBRANCH  12  13
ENDBRANCH   2   7
BRANCH   2  15
ATOM     15  O   UNL     1      -1.363   0.824 -27.957  1.00  0.00    -0.507 OA
ATOM     16  H   UNL     1      -1.632   1.209 -27.108  1.00  0.00     0.293 HD
ENDBRANCH   2  15
TORSDOF 5
ENDMDL
MODEL 9
REMARK VINA RESULT:      -5.9     13.660     17.434
REMARK SMILES COc1ccc(C(O)=CC=CO)cc1
REMARK SMILES IDX 9 1 7 2 10 3 11 4 12 5 6 7 5 8 13 9 4 10 14 11 3 12 2 13
REMARK SMILES IDX 1 14 8 15
REMARK H PARENT 12 6 8 16
ROOT
ATOM      1  C   UNL     1      -2.567   0.003 -29.735  1.00  0.00     0.050 C 
ATOM      2  C   UNL     1      -3.309  -0.199 -30.839  1.00  0.00     0.122 C 
ENDROOT
BRANCH   1   3
ATOM      3  C   UNL     1      -2.992   0.676 -28.523  1.00  0.00     0.042 C 
ATOM      4  C   UNL     1      -3.536   0.025 -27.490  1.00  0.00     0.183 C 
BRANCH   4   5
ATOM      5  O   UNL     1      -3.944   0.618 -26.327  1.00  0.00    -0.516 OA
ATOM      6  H   UNL     1      -4.622   0.057 -25.909  1.00  0.00     0.292 HD
ENDBRANCH   4   5
ENDBRANCH   1   3
BRANCH   2   7
ATOM      7  C   UNL     1      -4.713   0.206 -30.997  1.00  0.00     0.017 A 
ATOM      8  C   UNL     1      -5.740  -0.688 -30.673  1.00  0.00     0.016 A 
ATOM      9  C   UNL     1      -5.048   1.485 -31.451  1.00  0.00     0.016 A 
ATOM     10  C   UNL     1      -7.083  -0.318 -30.820  1.00  0.00     0.047 A 
ATOM     11  C   UNL     1      -6.389   1.853 -31.598  1.00  0.00     0.047 A 
ATOM     12  C   UNL     1      -7.412   0.955 -31.287  1.00  0.00     0.118 A 
BRANCH  12  13
ATOM     13  O   UNL     1      -8.676   1.439 -31.478  1.00  0.00    -0.497 OA
ATOM     14  C   UNL     1      -9.049   1.750 -32.815  1.00  0.00     0.278 C 
ENDBRANCH  12  13
ENDBRANCH   2   7
BRANCH   2  15
ATOM     15  O   UNL     1      -2.791  -0.807 -31.965  1.00  0.00    -0.507 OA
ATOM     16  H   UNL     1      -3.129  -0.348 -32.751  1.00  0.00     0.293 HD
ENDBRANCH   2  15
TORSDOF 5
ENDMDL
MODEL 10
REMARK VINA RESULT:      -5.8     13.683     17.358
REMARK SMILES COc1ccc(C(O)=CC=CO)cc1
REMARK SMILES IDX 9 1 7 2 10 3 11 4 12 5 6 7 5 8 13 9 4 10 14 11 3 12 2 13
REMARK SMILES IDX 1 14 8 15
REMARK H PARENT 12 6 8 16
ROOT
ATOM      1  C   UNL     1      -2.545  -0.038 -29.707  1.00  0.00     0.050 C 
ATOM      2  C   UNL     1      -3.306  -0.178 -30.808  1.00  0.00     0.122 C 
ENDROOT
BRANCH   1   3
ATOM      3  C   UNL     1      -2.928   0.624 -28.474  1.00  0.00     0.042 C 
ATOM      4  C   UNL     1      -3.581  -0.006 -27.491  1.00  0.00     0.183 C 
BRANCH   4   5
ATOM      5  O   UNL     1      -3.954   0.577 -26.311  1.00  0.00    -0.516 OA
ATOM      6  H   UNL     1      -3.180   1.024 -25.923  1.00  0.00     0.292 HD
ENDBRANCH   4   5
ENDBRANCH   1   3
BRANCH   2   7
ATOM      7  C   UNL     1      -4.692   0.295 -30.941  1.00  0.00     0.017 A 
ATOM      8  C   UNL     1      -4.947   1.625 -31.294  1.00  0.00     0.016 A 
ATOM      9  C   UNL     1      -5.772  -0.571 -30.737  1.00  0.00     0.016 A 
ATOM     10  C   UNL     1      -6.261   2.090 -31.423  1.00  0.00     0.047 A 
ATOM     11  C   UNL     1      -7.083  -0.104 -30.865  1.00  0.00     0.047 A 
ATOM     12  C   UNL     1      -7.336   1.227 -31.205  1.00  0.00     0.118 A 
BRANCH  12  13
ATOM     13  O   UNL     1      -8.661   1.552 -31.294  1.00  0.00    -0.497 OA
ATOM     14  C   UNL     1      -9.199   1.703 -32.601  1.00  0.00     0.278 C 
ENDBRANCH  12  13
ENDBRANCH   2   7
BRANCH   2  15
ATOM     15  O   UNL     1      -2.827  -0.780 -31.953  1.00  0.00    -0.507 OA
ATOM     16  H   UNL     1      -2.032  -0.307 -32.246  1.00  0.00     0.293 HD
ENDBRANCH   2  15
TORSDOF 5
ENDMDL
