MODEL 1
REMARK VINA RESULT:      -9.6      0.000      0.000
REMARK SMILES O=C(/C=C/c1ccc(O)c(O)c1)O[C@@H]1C[C@](O)(C(=O)O)C[C@@H](OC(=O)/C=C/c2ccc(O)c(O)c2)[C@@H]1O
REMARK SMILES IDX 15 1 16 2 21 3 22 4 36 5 14 6 17 7 18 9 19 10 20 11 13 13
REMARK SMILES IDX 2 14 1 15 3 16 4 17 5 18 12 19 6 20 10 21 7 22 8 23 11 24
REMARK SMILES IDX 9 26 37 28 23 30 24 31 25 32 26 33 27 34 28 35 35 36 29 37
REMARK SMILES IDX 33 38 30 39 31 40 34 41 32 43
REMARK H PARENT 17 8 20 12 11 25 9 27 37 29 34 42 32 44
ROOT
ATOM      1  C   UNL     1      -4.121   0.365 -27.885  1.00  0.00     0.095 C 
ATOM      2  C   UNL     1      -3.827   0.439 -29.384  1.00  0.00     0.169 C 
ATOM      3  C   UNL     1      -4.913   1.173 -30.181  1.00  0.00     0.095 C 
ATOM      4  C   UNL     1      -6.346   0.749 -29.832  1.00  0.00     0.212 C 
ATOM      5  C   UNL     1      -6.570   0.794 -28.312  1.00  0.00     0.196 C 
ATOM      6  C   UNL     1      -5.548  -0.089 -27.565  1.00  0.00     0.212 C 
ENDROOT
BRANCH   2   7
ATOM      7  O   UNL     1      -2.586   1.173 -29.572  1.00  0.00    -0.378 OA
ATOM      8  H   UNL     1      -2.756   2.111 -29.362  1.00  0.00     0.212 HD
ENDBRANCH   2   7
BRANCH   2   9
ATOM      9  C   UNL     1      -3.535  -0.970 -29.953  1.00  0.00     0.335 C 
ATOM     10  O   UNL     1      -3.472  -1.265 -31.136  1.00  0.00    -0.249 OA
BRANCH   9  11
ATOM     11  O   UNL     1      -3.371  -1.883 -28.962  1.00  0.00    -0.479 OA
ATOM     12  H   UNL     1      -2.963  -2.684 -29.373  1.00  0.00     0.296 HD
ENDBRANCH   9  11
ENDBRANCH   2   9
BRANCH   6  13
ATOM     13  O   UNL     1      -5.719   0.060 -26.137  1.00  0.00    -0.456 OA
BRANCH  13  14
ATOM     14  C   UNL     1      -5.747  -1.097 -25.427  1.00  0.00     0.331 C 
ATOM     15  O   UNL     1      -5.214  -2.148 -25.742  1.00  0.00    -0.247 OA
BRANCH  14  16
ATOM     16  C   UNL     1      -6.554  -0.873 -24.213  1.00  0.00     0.094 C 
ATOM     17  C   UNL     1      -7.338  -1.854 -23.741  1.00  0.00     0.016 C 
BRANCH  17  18
ATOM     18  C   UNL     1      -8.185  -1.724 -22.547  1.00  0.00    -0.021 A 
ATOM     19  C   UNL     1      -8.377  -2.850 -21.731  1.00  0.00     0.058 A 
ATOM     20  C   UNL     1      -8.854  -0.529 -22.235  1.00  0.00     0.012 A 
ATOM     21  C   UNL     1      -9.203  -2.758 -20.613  1.00  0.00     0.157 A 
ATOM     22  C   UNL     1      -9.681  -0.445 -21.111  1.00  0.00     0.051 A 
ATOM     23  C   UNL     1      -9.846  -1.562 -20.308  1.00  0.00     0.157 A 
BRANCH  21  24
ATOM     24  O   UNL     1      -9.417  -3.823 -19.782  1.00  0.00    -0.504 OA
ATOM     25  H   UNL     1     -10.371  -4.012 -19.769  1.00  0.00     0.293 HD
ENDBRANCH  21  24
BRANCH  23  26
ATOM     26  O   UNL     1     -10.656  -1.481 -19.214  1.00  0.00    -0.504 OA
ATOM     27  H   UNL     1     -11.490  -1.912 -19.493  1.00  0.00     0.293 HD
ENDBRANCH  23  26
ENDBRANCH  17  18
ENDBRANCH  14  16
ENDBRANCH  13  14
ENDBRANCH   6  13
BRANCH   5  28
ATOM     28  O   UNL     1      -7.920   0.428 -28.019  1.00  0.00    -0.385 OA
ATOM     29  H   UNL     1      -8.113  -0.424 -28.465  1.00  0.00     0.211 HD
ENDBRANCH   5  28
BRANCH   4  30
ATOM     30  O   UNL     1      -6.602  -0.593 -30.287  1.00  0.00    -0.456 OA
BRANCH  30  31
ATOM     31  C   UNL     1      -7.483  -0.717 -31.311  1.00  0.00     0.331 C 
ATOM     32  O   UNL     1      -7.430  -0.133 -32.382  1.00  0.00    -0.247 OA
BRANCH  31  33
ATOM     33  C   UNL     1      -8.491  -1.724 -30.931  1.00  0.00     0.094 C 
ATOM     34  C   UNL     1      -8.240  -2.571 -29.921  1.00  0.00     0.016 C 
BRANCH  34  35
ATOM     35  C   UNL     1      -9.183  -3.592 -29.444  1.00  0.00    -0.021 A 
ATOM     36  C   UNL     1      -9.852  -4.462 -30.319  1.00  0.00     0.058 A 
ATOM     37  C   UNL     1      -9.469  -3.652 -28.069  1.00  0.00     0.012 A 
ATOM     38  C   UNL     1     -10.761  -5.386 -29.811  1.00  0.00     0.157 A 
ATOM     39  C   UNL     1     -10.384  -4.580 -27.567  1.00  0.00     0.051 A 
ATOM     40  C   UNL     1     -11.020  -5.442 -28.444  1.00  0.00     0.157 A 
BRANCH  38  41
ATOM     41  O   UNL     1     -11.435  -6.258 -30.622  1.00  0.00    -0.504 OA
ATOM     42  H   UNL     1     -12.290  -5.856 -30.853  1.00  0.00     0.293 HD
ENDBRANCH  38  41
BRANCH  40  43
ATOM     43  O   UNL     1     -11.917  -6.349 -27.957  1.00  0.00    -0.504 OA
ATOM     44  H   UNL     1     -11.363  -7.074 -27.604  1.00  0.00     0.293 HD
ENDBRANCH  40  43
ENDBRANCH  34  35
ENDBRANCH  31  33
ENDBRANCH  30  31
ENDBRANCH   4  30
TORSDOF 16
ENDMDL
MODEL 2
REMARK VINA RESULT:      -9.6      2.229      8.445
REMARK SMILES O=C(/C=C/c1ccc(O)c(O)c1)O[C@@H]1C[C@](O)(C(=O)O)C[C@@H](OC(=O)/C=C/c2ccc(O)c(O)c2)[C@@H]1O
REMARK SMILES IDX 15 1 16 2 21 3 22 4 36 5 14 6 17 7 18 9 19 10 20 11 13 13
REMARK SMILES IDX 2 14 1 15 3 16 4 17 5 18 12 19 6 20 10 21 7 22 8 23 11 24
REMARK SMILES IDX 9 26 37 28 23 30 24 31 25 32 26 33 27 34 28 35 35 36 29 37
REMARK SMILES IDX 33 38 30 39 31 40 34 41 32 43
REMARK H PARENT 17 8 20 12 11 25 9 27 37 29 34 42 32 44
ROOT
ATOM      1  C   UNL     1     -10.683  -2.304 -22.976  1.00  0.00     0.095 C 
ATOM      2  C   UNL     1      -9.520  -2.628 -22.038  1.00  0.00     0.169 C 
ATOM      3  C   UNL     1      -8.570  -1.443 -21.816  1.00  0.00     0.095 C 
ATOM      4  C   UNL     1      -8.167  -0.710 -23.102  1.00  0.00     0.212 C 
ATOM      5  C   UNL     1      -9.410  -0.348 -23.932  1.00  0.00     0.196 C 
ATOM      6  C   UNL     1     -10.249  -1.600 -24.264  1.00  0.00     0.212 C 
ENDROOT
BRANCH   2   7
ATOM      7  O   UNL     1     -10.066  -2.989 -20.739  1.00  0.00    -0.378 OA
ATOM      8  H   UNL     1      -9.320  -3.120 -20.124  1.00  0.00     0.212 HD
ENDBRANCH   2   7
BRANCH   2   9
ATOM      9  C   UNL     1      -8.772  -3.896 -22.511  1.00  0.00     0.335 C 
ATOM     10  O   UNL     1      -9.272  -4.850 -23.085  1.00  0.00    -0.249 OA
BRANCH   9  11
ATOM     11  O   UNL     1      -7.454  -3.845 -22.189  1.00  0.00    -0.479 OA
ATOM     12  H   UNL     1      -7.307  -2.991 -21.713  1.00  0.00     0.296 HD
ENDBRANCH   9  11
ENDBRANCH   2   9
BRANCH   6  13
ATOM     13  O   UNL     1     -11.462  -1.211 -24.951  1.00  0.00    -0.456 OA
BRANCH  13  14
ATOM     14  C   UNL     1     -11.788  -1.964 -26.033  1.00  0.00     0.331 C 
ATOM     15  O   UNL     1     -12.823  -2.591 -26.189  1.00  0.00    -0.247 OA
BRANCH  14  16
ATOM     16  C   UNL     1     -10.663  -1.913 -26.986  1.00  0.00     0.094 C 
ATOM     17  C   UNL     1     -10.559  -0.884 -27.841  1.00  0.00     0.016 C 
BRANCH  17  18
ATOM     18  C   UNL     1      -9.483  -0.749 -28.833  1.00  0.00    -0.021 A 
ATOM     19  C   UNL     1      -9.659  -1.325 -30.101  1.00  0.00     0.058 A 
ATOM     20  C   UNL     1      -8.265  -0.118 -28.530  1.00  0.00     0.012 A 
ATOM     21  C   UNL     1      -8.638  -1.239 -31.045  1.00  0.00     0.157 A 
ATOM     22  C   UNL     1      -7.246  -0.035 -29.483  1.00  0.00     0.051 A 
ATOM     23  C   UNL     1      -7.443  -0.596 -30.734  1.00  0.00     0.157 A 
BRANCH  21  24
ATOM     24  O   UNL     1      -8.762  -1.777 -32.296  1.00  0.00    -0.504 OA
ATOM     25  H   UNL     1      -9.698  -1.999 -32.442  1.00  0.00     0.293 HD
ENDBRANCH  21  24
BRANCH  23  26
ATOM     26  O   UNL     1      -6.447  -0.519 -31.663  1.00  0.00    -0.504 OA
ATOM     27  H   UNL     1      -6.235   0.435 -31.716  1.00  0.00     0.293 HD
ENDBRANCH  23  26
ENDBRANCH  17  18
ENDBRANCH  14  16
ENDBRANCH  13  14
ENDBRANCH   6  13
BRANCH   5  28
ATOM     28  O   UNL     1      -9.007   0.363 -25.105  1.00  0.00    -0.385 OA
ATOM     29  H   UNL     1      -9.407   1.258 -25.077  1.00  0.00     0.211 HD
ENDBRANCH   5  28
BRANCH   4  30
ATOM     30  O   UNL     1      -7.309  -1.537 -23.910  1.00  0.00    -0.456 OA
BRANCH  30  31
ATOM     31  C   UNL     1      -6.049  -1.075 -24.105  1.00  0.00     0.331 C 
ATOM     32  O   UNL     1      -5.265  -0.729 -23.236  1.00  0.00    -0.247 OA
BRANCH  31  33
ATOM     33  C   UNL     1      -5.764  -1.114 -25.552  1.00  0.00     0.094 C 
ATOM     34  C   UNL     1      -4.616  -0.602 -26.020  1.00  0.00     0.016 C 
BRANCH  34  35
ATOM     35  C   UNL     1      -4.222  -0.612 -27.436  1.00  0.00    -0.021 A 
ATOM     36  C   UNL     1      -3.926   0.565 -28.141  1.00  0.00     0.058 A 
ATOM     37  C   UNL     1      -4.205  -1.841 -28.118  1.00  0.00     0.012 A 
ATOM     38  C   UNL     1      -3.595   0.495 -29.491  1.00  0.00     0.157 A 
ATOM     39  C   UNL     1      -3.872  -1.903 -29.474  1.00  0.00     0.051 A 
ATOM     40  C   UNL     1      -3.566  -0.733 -30.148  1.00  0.00     0.157 A 
BRANCH  38  41
ATOM     41  O   UNL     1      -3.294   1.612 -30.220  1.00  0.00    -0.504 OA
ATOM     42  H   UNL     1      -3.994   2.270 -30.066  1.00  0.00     0.293 HD
ENDBRANCH  38  41
BRANCH  40  43
ATOM     43  O   UNL     1      -3.244  -0.790 -31.472  1.00  0.00    -0.504 OA
ATOM     44  H   UNL     1      -3.470  -1.704 -31.740  1.00  0.00     0.293 HD
ENDBRANCH  40  43
ENDBRANCH  34  35
ENDBRANCH  31  33
ENDBRANCH  30  31
ENDBRANCH   4  30
TORSDOF 16
ENDMDL
MODEL 3
REMARK VINA RESULT:      -9.6      2.816      8.779
REMARK SMILES O=C(/C=C/c1ccc(O)c(O)c1)O[C@@H]1C[C@](O)(C(=O)O)C[C@@H](OC(=O)/C=C/c2ccc(O)c(O)c2)[C@@H]1O
REMARK SMILES IDX 15 1 16 2 21 3 22 4 36 5 14 6 17 7 18 9 19 10 20 11 13 13
REMARK SMILES IDX 2 14 1 15 3 16 4 17 5 18 12 19 6 20 10 21 7 22 8 23 11 24
REMARK SMILES IDX 9 26 37 28 23 30 24 31 25 32 26 33 27 34 28 35 35 36 29 37
REMARK SMILES IDX 33 38 30 39 31 40 34 41 32 43
REMARK H PARENT 17 8 20 12 11 25 9 27 37 29 34 42 32 44
ROOT
ATOM      1  C   UNL     1     -11.262  -1.872 -26.336  1.00  0.00     0.095 C 
ATOM      2  C   UNL     1     -11.032  -2.334 -24.897  1.00  0.00     0.169 C 
ATOM      3  C   UNL     1     -10.331  -1.282 -24.026  1.00  0.00     0.095 C 
ATOM      4  C   UNL     1      -9.113  -0.626 -24.688  1.00  0.00     0.212 C 
ATOM      5  C   UNL     1      -9.470  -0.114 -26.093  1.00  0.00     0.196 C 
ATOM      6  C   UNL     1     -10.022  -1.248 -26.983  1.00  0.00     0.212 C 
ENDROOT
BRANCH   2   7
ATOM      7  O   UNL     1     -12.325  -2.602 -24.289  1.00  0.00    -0.378 OA
ATOM      8  H   UNL     1     -12.723  -1.748 -24.036  1.00  0.00     0.212 HD
ENDBRANCH   2   7
BRANCH   2   9
ATOM      9  C   UNL     1     -10.300  -3.696 -24.871  1.00  0.00     0.335 C 
ATOM     10  O   UNL     1      -9.642  -4.138 -23.943  1.00  0.00    -0.249 OA
BRANCH   9  11
ATOM     11  O   UNL     1     -10.453  -4.366 -26.043  1.00  0.00    -0.479 OA
ATOM     12  H   UNL     1     -10.372  -5.329 -25.836  1.00  0.00     0.296 HD
ENDBRANCH   9  11
ENDBRANCH   2   9
BRANCH   6  13
ATOM     13  O   UNL     1     -10.446  -0.712 -28.257  1.00  0.00    -0.456 OA
BRANCH  13  14
ATOM     14  C   UNL     1      -9.717  -1.111 -29.331  1.00  0.00     0.331 C 
ATOM     15  O   UNL     1      -9.750  -2.212 -29.855  1.00  0.00    -0.247 OA
BRANCH  14  16
ATOM     16  C   UNL     1      -8.857   0.013 -29.747  1.00  0.00     0.094 C 
ATOM     17  C   UNL     1      -7.535  -0.038 -29.523  1.00  0.00     0.016 C 
BRANCH  17  18
ATOM     18  C   UNL     1      -6.600   1.033 -29.891  1.00  0.00    -0.021 A 
ATOM     19  C   UNL     1      -5.659   0.789 -30.904  1.00  0.00     0.058 A 
ATOM     20  C   UNL     1      -6.578   2.267 -29.219  1.00  0.00     0.012 A 
ATOM     21  C   UNL     1      -4.741   1.779 -31.245  1.00  0.00     0.157 A 
ATOM     22  C   UNL     1      -5.654   3.255 -29.568  1.00  0.00     0.051 A 
ATOM     23  C   UNL     1      -4.743   3.002 -30.581  1.00  0.00     0.157 A 
BRANCH  21  24
ATOM     24  O   UNL     1      -3.809   1.593 -32.229  1.00  0.00    -0.504 OA
ATOM     25  H   UNL     1      -3.338   0.761 -32.050  1.00  0.00     0.293 HD
ENDBRANCH  21  24
BRANCH  23  26
ATOM     26  O   UNL     1      -3.838   3.965 -30.919  1.00  0.00    -0.504 OA
ATOM     27  H   UNL     1      -3.981   4.110 -31.876  1.00  0.00     0.293 HD
ENDBRANCH  23  26
ENDBRANCH  17  18
ENDBRANCH  14  16
ENDBRANCH  13  14
ENDBRANCH   6  13
BRANCH   5  28
ATOM     28  O   UNL     1      -8.328   0.522 -26.671  1.00  0.00    -0.385 OA
ATOM     29  H   UNL     1      -8.083   0.036 -27.487  1.00  0.00     0.211 HD
ENDBRANCH   5  28
BRANCH   4  30
ATOM     30  O   UNL     1      -8.033  -1.570 -24.811  1.00  0.00    -0.456 OA
BRANCH  30  31
ATOM     31  C   UNL     1      -6.904  -1.277 -24.119  1.00  0.00     0.331 C 
ATOM     32  O   UNL     1      -6.706  -1.502 -22.936  1.00  0.00    -0.247 OA
BRANCH  31  33
ATOM     33  C   UNL     1      -5.930  -0.687 -25.056  1.00  0.00     0.094 C 
ATOM     34  C   UNL     1      -5.389  -1.446 -26.021  1.00  0.00     0.016 C 
BRANCH  34  35
ATOM     35  C   UNL     1      -4.431  -0.954 -27.021  1.00  0.00    -0.021 A 
ATOM     36  C   UNL     1      -3.906   0.347 -26.979  1.00  0.00     0.058 A 
ATOM     37  C   UNL     1      -4.082  -1.799 -28.089  1.00  0.00     0.012 A 
ATOM     38  C   UNL     1      -3.029   0.769 -27.976  1.00  0.00     0.157 A 
ATOM     39  C   UNL     1      -3.203  -1.368 -29.086  1.00  0.00     0.051 A 
ATOM     40  C   UNL     1      -2.681  -0.087 -29.018  1.00  0.00     0.157 A 
BRANCH  38  41
ATOM     41  O   UNL     1      -2.487   2.025 -27.977  1.00  0.00    -0.504 OA
ATOM     42  H   UNL     1      -1.981   2.136 -27.154  1.00  0.00     0.293 HD
ENDBRANCH  38  41
BRANCH  40  43
ATOM     43  O   UNL     1      -1.825   0.338 -29.991  1.00  0.00    -0.504 OA
ATOM     44  H   UNL     1      -1.626   1.266 -29.754  1.00  0.00     0.293 HD
ENDBRANCH  40  43
ENDBRANCH  34  35
ENDBRANCH  31  33
ENDBRANCH  30  31
ENDBRANCH   4  30
TORSDOF 16
ENDMDL
MODEL 4
REMARK VINA RESULT:      -9.4      2.461      5.669
REMARK SMILES O=C(/C=C/c1ccc(O)c(O)c1)O[C@@H]1C[C@](O)(C(=O)O)C[C@@H](OC(=O)/C=C/c2ccc(O)c(O)c2)[C@@H]1O
REMARK SMILES IDX 15 1 16 2 21 3 22 4 36 5 14 6 17 7 18 9 19 10 20 11 13 13
REMARK SMILES IDX 2 14 1 15 3 16 4 17 5 18 12 19 6 20 10 21 7 22 8 23 11 24
REMARK SMILES IDX 9 26 37 28 23 30 24 31 25 32 26 33 27 34 28 35 35 36 29 37
REMARK SMILES IDX 33 38 30 39 31 40 34 41 32 43
REMARK H PARENT 17 8 20 12 11 25 9 27 37 29 34 42 32 44
ROOT
ATOM      1  C   UNL     1      -5.799   0.449 -31.821  1.00  0.00     0.095 C 
ATOM      2  C   UNL     1      -4.497   1.148 -31.431  1.00  0.00     0.169 C 
ATOM      3  C   UNL     1      -3.517   0.234 -30.682  1.00  0.00     0.095 C 
ATOM      4  C   UNL     1      -4.158  -0.592 -29.560  1.00  0.00     0.212 C 
ATOM      5  C   UNL     1      -5.407  -1.327 -30.073  1.00  0.00     0.196 C 
ATOM      6  C   UNL     1      -6.433  -0.343 -30.674  1.00  0.00     0.212 C 
ENDROOT
BRANCH   2   7
ATOM      7  O   UNL     1      -3.830   1.587 -32.647  1.00  0.00    -0.378 OA
ATOM      8  H   UNL     1      -4.517   1.832 -33.296  1.00  0.00     0.212 HD
ENDBRANCH   2   7
BRANCH   2   9
ATOM      9  C   UNL     1      -4.788   2.454 -30.655  1.00  0.00     0.335 C 
ATOM     10  O   UNL     1      -5.841   3.071 -30.661  1.00  0.00    -0.249 OA
BRANCH   9  11
ATOM     11  O   UNL     1      -3.700   2.870 -29.956  1.00  0.00    -0.479 OA
ATOM     12  H   UNL     1      -3.671   3.855 -30.029  1.00  0.00     0.296 HD
ENDBRANCH   9  11
ENDBRANCH   2   9
BRANCH   6  13
ATOM     13  O   UNL     1      -7.543  -1.076 -31.242  1.00  0.00    -0.456 OA
BRANCH  13  14
ATOM     14  C   UNL     1      -8.748  -0.451 -31.183  1.00  0.00     0.331 C 
ATOM     15  O   UNL     1      -9.353   0.036 -32.124  1.00  0.00    -0.247 OA
BRANCH  14  16
ATOM     16  C   UNL     1      -9.194  -0.442 -29.777  1.00  0.00     0.094 C 
ATOM     17  C   UNL     1      -9.550  -1.590 -29.182  1.00  0.00     0.016 C 
BRANCH  17  18
ATOM     18  C   UNL     1     -10.017  -1.681 -27.792  1.00  0.00    -0.021 A 
ATOM     19  C   UNL     1      -9.837  -2.889 -27.098  1.00  0.00     0.058 A 
ATOM     20  C   UNL     1     -10.690  -0.622 -27.160  1.00  0.00     0.012 A 
ATOM     21  C   UNL     1     -10.302  -3.008 -25.791  1.00  0.00     0.157 A 
ATOM     22  C   UNL     1     -11.152  -0.750 -25.848  1.00  0.00     0.051 A 
ATOM     23  C   UNL     1     -10.953  -1.944 -25.174  1.00  0.00     0.157 A 
BRANCH  21  24
ATOM     24  O   UNL     1     -10.146  -4.161 -25.070  1.00  0.00    -0.504 OA
ATOM     25  H   UNL     1     -11.026  -4.548 -24.920  1.00  0.00     0.293 HD
ENDBRANCH  21  24
BRANCH  23  26
ATOM     26  O   UNL     1     -11.408  -2.071 -23.894  1.00  0.00    -0.504 OA
ATOM     27  H   UNL     1     -10.900  -2.822 -23.527  1.00  0.00     0.293 HD
ENDBRANCH  23  26
ENDBRANCH  17  18
ENDBRANCH  14  16
ENDBRANCH  13  14
ENDBRANCH   6  13
BRANCH   5  28
ATOM     28  O   UNL     1      -5.963  -2.114 -29.017  1.00  0.00    -0.385 OA
ATOM     29  H   UNL     1      -5.952  -3.054 -29.293  1.00  0.00     0.211 HD
ENDBRANCH   5  28
BRANCH   4  30
ATOM     30  O   UNL     1      -4.552   0.259 -28.466  1.00  0.00    -0.456 OA
BRANCH  30  31
ATOM     31  C   UNL     1      -3.730   0.260 -27.387  1.00  0.00     0.331 C 
ATOM     32  O   UNL     1      -2.566   0.625 -27.369  1.00  0.00    -0.247 OA
BRANCH  31  33
ATOM     33  C   UNL     1      -4.502  -0.206 -26.221  1.00  0.00     0.094 C 
ATOM     34  C   UNL     1      -5.745   0.257 -26.015  1.00  0.00     0.016 C 
BRANCH  34  35
ATOM     35  C   UNL     1      -6.609  -0.160 -24.902  1.00  0.00    -0.021 A 
ATOM     36  C   UNL     1      -6.464  -1.402 -24.264  1.00  0.00     0.058 A 
ATOM     37  C   UNL     1      -7.656   0.693 -24.510  1.00  0.00     0.012 A 
ATOM     38  C   UNL     1      -7.337  -1.756 -23.239  1.00  0.00     0.157 A 
ATOM     39  C   UNL     1      -8.529   0.330 -23.480  1.00  0.00     0.051 A 
ATOM     40  C   UNL     1      -8.358  -0.892 -22.851  1.00  0.00     0.157 A 
BRANCH  38  41
ATOM     41  O   UNL     1      -7.234  -2.952 -22.584  1.00  0.00    -0.504 OA
ATOM     42  H   UNL     1      -7.482  -2.809 -21.654  1.00  0.00     0.293 HD
ENDBRANCH  38  41
BRANCH  40  43
ATOM     43  O   UNL     1      -9.210  -1.251 -21.848  1.00  0.00    -0.504 OA
ATOM     44  H   UNL     1      -9.863  -0.523 -21.810  1.00  0.00     0.293 HD
ENDBRANCH  40  43
ENDBRANCH  34  35
ENDBRANCH  31  33
ENDBRANCH  30  31
ENDBRANCH   4  30
TORSDOF 16
ENDMDL
MODEL 5
REMARK VINA RESULT:      -9.4      3.137      6.950
REMARK SMILES O=C(/C=C/c1ccc(O)c(O)c1)O[C@@H]1C[C@](O)(C(=O)O)C[C@@H](OC(=O)/C=C/c2ccc(O)c(O)c2)[C@@H]1O
REMARK SMILES IDX 15 1 16 2 21 3 22 4 36 5 14 6 17 7 18 9 19 10 20 11 13 13
REMARK SMILES IDX 2 14 1 15 3 16 4 17 5 18 12 19 6 20 10 21 7 22 8 23 11 24
REMARK SMILES IDX 9 26 37 28 23 30 24 31 25 32 26 33 27 34 28 35 35 36 29 37
REMARK SMILES IDX 33 38 30 39 31 40 34 41 32 43
REMARK H PARENT 17 8 20 12 11 25 9 27 37 29 34 42 32 44
ROOT
ATOM      1  C   UNL     1      -4.564   1.047 -27.552  1.00  0.00     0.095 C 
ATOM      2  C   UNL     1      -5.124   0.021 -26.566  1.00  0.00     0.169 C 
ATOM      3  C   UNL     1      -4.846  -1.431 -26.975  1.00  0.00     0.095 C 
ATOM      4  C   UNL     1      -5.139  -1.737 -28.450  1.00  0.00     0.212 C 
ATOM      5  C   UNL     1      -4.459  -0.705 -29.364  1.00  0.00     0.196 C 
ATOM      6  C   UNL     1      -4.897   0.733 -29.013  1.00  0.00     0.212 C 
ENDROOT
BRANCH   2   7
ATOM      7  O   UNL     1      -4.490   0.232 -25.275  1.00  0.00    -0.378 OA
ATOM      8  H   UNL     1      -3.619   0.646 -25.430  1.00  0.00     0.212 HD
ENDBRANCH   2   7
BRANCH   2   9
ATOM      9  C   UNL     1      -6.627   0.277 -26.306  1.00  0.00     0.335 C 
ATOM     10  O   UNL     1      -7.209   1.340 -26.454  1.00  0.00    -0.249 OA
BRANCH   9  11
ATOM     11  O   UNL     1      -7.252  -0.842 -25.858  1.00  0.00    -0.479 OA
ATOM     12  H   UNL     1      -7.597  -0.637 -24.955  1.00  0.00     0.296 HD
ENDBRANCH   9  11
ENDBRANCH   2   9
BRANCH   6  13
ATOM     13  O   UNL     1      -4.159   1.682 -29.818  1.00  0.00    -0.456 OA
BRANCH  13  14
ATOM     14  C   UNL     1      -4.911   2.618 -30.453  1.00  0.00     0.331 C 
ATOM     15  O   UNL     1      -4.545   3.735 -30.780  1.00  0.00    -0.247 OA
BRANCH  14  16
ATOM     16  C   UNL     1      -6.259   2.059 -30.666  1.00  0.00     0.094 C 
ATOM     17  C   UNL     1      -6.566   1.481 -31.837  1.00  0.00     0.016 C 
BRANCH  17  18
ATOM     18  C   UNL     1      -7.882   0.906 -32.148  1.00  0.00    -0.021 A 
ATOM     19  C   UNL     1      -8.938   1.774 -32.467  1.00  0.00     0.058 A 
ATOM     20  C   UNL     1      -8.128  -0.475 -32.074  1.00  0.00     0.012 A 
ATOM     21  C   UNL     1     -10.203   1.252 -32.731  1.00  0.00     0.157 A 
ATOM     22  C   UNL     1      -9.399  -0.990 -32.341  1.00  0.00     0.051 A 
ATOM     23  C   UNL     1     -10.426  -0.120 -32.669  1.00  0.00     0.157 A 
BRANCH  21  24
ATOM     24  O   UNL     1     -11.263   2.054 -33.054  1.00  0.00    -0.504 OA
ATOM     25  H   UNL     1     -11.788   1.605 -33.739  1.00  0.00     0.293 HD
ENDBRANCH  21  24
BRANCH  23  26
ATOM     26  O   UNL     1     -11.668  -0.622 -32.926  1.00  0.00    -0.504 OA
ATOM     27  H   UNL     1     -11.601  -1.571 -32.698  1.00  0.00     0.293 HD
ENDBRANCH  23  26
ENDBRANCH  17  18
ENDBRANCH  14  16
ENDBRANCH  13  14
ENDBRANCH   6  13
BRANCH   5  28
ATOM     28  O   UNL     1      -4.721  -1.034 -30.730  1.00  0.00    -0.385 OA
ATOM     29  H   UNL     1      -5.689  -0.992 -30.878  1.00  0.00     0.211 HD
ENDBRANCH   5  28
BRANCH   4  30
ATOM     30  O   UNL     1      -6.556  -1.701 -28.702  1.00  0.00    -0.456 OA
BRANCH  30  31
ATOM     31  C   UNL     1      -7.082  -2.797 -29.304  1.00  0.00     0.331 C 
ATOM     32  O   UNL     1      -6.784  -3.226 -30.407  1.00  0.00    -0.247 OA
BRANCH  31  33
ATOM     33  C   UNL     1      -8.042  -3.417 -28.372  1.00  0.00     0.094 C 
ATOM     34  C   UNL     1      -9.238  -2.845 -28.168  1.00  0.00     0.016 C 
BRANCH  34  35
ATOM     35  C   UNL     1     -10.276  -3.392 -27.282  1.00  0.00    -0.021 A 
ATOM     36  C   UNL     1     -10.876  -2.628 -26.269  1.00  0.00     0.058 A 
ATOM     37  C   UNL     1     -10.630  -4.745 -27.420  1.00  0.00     0.012 A 
ATOM     38  C   UNL     1     -11.828  -3.212 -25.438  1.00  0.00     0.157 A 
ATOM     39  C   UNL     1     -11.585  -5.325 -26.581  1.00  0.00     0.051 A 
ATOM     40  C   UNL     1     -12.179  -4.551 -25.598  1.00  0.00     0.157 A 
BRANCH  38  41
ATOM     41  O   UNL     1     -12.444  -2.510 -24.439  1.00  0.00    -0.504 OA
ATOM     42  H   UNL     1     -11.911  -1.717 -24.255  1.00  0.00     0.293 HD
ENDBRANCH  38  41
BRANCH  40  43
ATOM     43  O   UNL     1     -13.110  -5.114 -24.775  1.00  0.00    -0.504 OA
ATOM     44  H   UNL     1     -13.017  -4.627 -23.932  1.00  0.00     0.293 HD
ENDBRANCH  40  43
ENDBRANCH  34  35
ENDBRANCH  31  33
ENDBRANCH  30  31
ENDBRANCH   4  30
TORSDOF 16
ENDMDL
MODEL 6
REMARK VINA RESULT:      -9.3      1.683      6.274
REMARK SMILES O=C(/C=C/c1ccc(O)c(O)c1)O[C@@H]1C[C@](O)(C(=O)O)C[C@@H](OC(=O)/C=C/c2ccc(O)c(O)c2)[C@@H]1O
REMARK SMILES IDX 15 1 16 2 21 3 22 4 36 5 14 6 17 7 18 9 19 10 20 11 13 13
REMARK SMILES IDX 2 14 1 15 3 16 4 17 5 18 12 19 6 20 10 21 7 22 8 23 11 24
REMARK SMILES IDX 9 26 37 28 23 30 24 31 25 32 26 33 27 34 28 35 35 36 29 37
REMARK SMILES IDX 33 38 30 39 31 40 34 41 32 43
REMARK H PARENT 17 8 20 12 11 25 9 27 37 29 34 42 32 44
ROOT
ATOM      1  C   UNL     1      -4.365  -0.286 -30.638  1.00  0.00     0.095 C 
ATOM      2  C   UNL     1      -3.314   0.317 -29.706  1.00  0.00     0.169 C 
ATOM      3  C   UNL     1      -2.964  -0.588 -28.517  1.00  0.00     0.095 C 
ATOM      4  C   UNL     1      -4.182  -1.187 -27.803  1.00  0.00     0.212 C 
ATOM      5  C   UNL     1      -5.134  -1.849 -28.814  1.00  0.00     0.196 C 
ATOM      6  C   UNL     1      -5.582  -0.849 -29.901  1.00  0.00     0.212 C 
ENDROOT
BRANCH   2   7
ATOM      7  O   UNL     1      -2.090   0.520 -30.465  1.00  0.00    -0.378 OA
ATOM      8  H   UNL     1      -1.879  -0.314 -30.927  1.00  0.00     0.212 HD
ENDBRANCH   2   7
BRANCH   2   9
ATOM      9  C   UNL     1      -3.732   1.737 -29.257  1.00  0.00     0.335 C 
ATOM     10  O   UNL     1      -4.467   2.495 -29.869  1.00  0.00    -0.249 OA
BRANCH   9  11
ATOM     11  O   UNL     1      -3.155   2.074 -28.074  1.00  0.00    -0.479 OA
ATOM     12  H   UNL     1      -3.413   1.379 -27.420  1.00  0.00     0.296 HD
ENDBRANCH   9  11
ENDBRANCH   2   9
BRANCH   6  13
ATOM     13  O   UNL     1      -6.388  -1.530 -30.892  1.00  0.00    -0.456 OA
BRANCH  13  14
ATOM     14  C   UNL     1      -7.622  -1.004 -31.103  1.00  0.00     0.331 C 
ATOM     15  O   UNL     1      -7.886  -0.055 -31.825  1.00  0.00    -0.247 OA
BRANCH  14  16
ATOM     16  C   UNL     1      -8.592  -1.764 -30.293  1.00  0.00     0.094 C 
ATOM     17  C   UNL     1      -8.580  -3.106 -30.324  1.00  0.00     0.016 C 
BRANCH  17  18
ATOM     18  C   UNL     1      -9.511  -3.950 -29.562  1.00  0.00    -0.021 A 
ATOM     19  C   UNL     1      -9.712  -3.673 -28.200  1.00  0.00     0.058 A 
ATOM     20  C   UNL     1     -10.155  -5.058 -30.138  1.00  0.00     0.012 A 
ATOM     21  C   UNL     1     -10.564  -4.481 -27.451  1.00  0.00     0.157 A 
ATOM     22  C   UNL     1     -11.008  -5.863 -29.379  1.00  0.00     0.051 A 
ATOM     23  C   UNL     1     -11.207  -5.566 -28.041  1.00  0.00     0.157 A 
BRANCH  21  24
ATOM     24  O   UNL     1     -10.798  -4.250 -26.123  1.00  0.00    -0.504 OA
ATOM     25  H   UNL     1     -11.262  -3.400 -26.039  1.00  0.00     0.293 HD
ENDBRANCH  21  24
BRANCH  23  26
ATOM     26  O   UNL     1     -12.036  -6.354 -27.299  1.00  0.00    -0.504 OA
ATOM     27  H   UNL     1     -12.892  -6.323 -27.773  1.00  0.00     0.293 HD
ENDBRANCH  23  26
ENDBRANCH  17  18
ENDBRANCH  14  16
ENDBRANCH  13  14
ENDBRANCH   6  13
BRANCH   5  28
ATOM     28  O   UNL     1      -6.240  -2.426 -28.117  1.00  0.00    -0.385 OA
ATOM     29  H   UNL     1      -6.980  -1.784 -28.126  1.00  0.00     0.211 HD
ENDBRANCH   5  28
BRANCH   4  30
ATOM     30  O   UNL     1      -4.911  -0.164 -27.098  1.00  0.00    -0.456 OA
BRANCH  30  31
ATOM     31  C   UNL     1      -4.906  -0.254 -25.745  1.00  0.00     0.331 C 
ATOM     32  O   UNL     1      -4.031   0.155 -24.999  1.00  0.00    -0.247 OA
BRANCH  31  33
ATOM     33  C   UNL     1      -6.170  -0.885 -25.322  1.00  0.00     0.094 C 
ATOM     34  C   UNL     1      -6.461  -0.985 -24.016  1.00  0.00     0.016 C 
BRANCH  34  35
ATOM     35  C   UNL     1      -7.701  -1.571 -23.488  1.00  0.00    -0.021 A 
ATOM     36  C   UNL     1      -7.702  -2.518 -22.452  1.00  0.00     0.058 A 
ATOM     37  C   UNL     1      -8.921  -1.212 -24.088  1.00  0.00     0.012 A 
ATOM     38  C   UNL     1      -8.906  -3.064 -22.018  1.00  0.00     0.157 A 
ATOM     39  C   UNL     1     -10.126  -1.766 -23.648  1.00  0.00     0.051 A 
ATOM     40  C   UNL     1     -10.108  -2.686 -22.613  1.00  0.00     0.157 A 
BRANCH  38  41
ATOM     41  O   UNL     1      -8.960  -3.987 -21.010  1.00  0.00    -0.504 OA
ATOM     42  H   UNL     1      -8.890  -4.872 -21.407  1.00  0.00     0.293 HD
ENDBRANCH  38  41
BRANCH  40  43
ATOM     43  O   UNL     1     -11.282  -3.230 -22.183  1.00  0.00    -0.504 OA
ATOM     44  H   UNL     1     -11.059  -4.161 -21.978  1.00  0.00     0.293 HD
ENDBRANCH  40  43
ENDBRANCH  34  35
ENDBRANCH  31  33
ENDBRANCH  30  31
ENDBRANCH   4  30
TORSDOF 16
ENDMDL
MODEL 7
REMARK VINA RESULT:      -9.3      2.386      8.908
REMARK SMILES O=C(/C=C/c1ccc(O)c(O)c1)O[C@@H]1C[C@](O)(C(=O)O)C[C@@H](OC(=O)/C=C/c2ccc(O)c(O)c2)[C@@H]1O
REMARK SMILES IDX 15 1 16 2 21 3 22 4 36 5 14 6 17 7 18 9 19 10 20 11 13 13
REMARK SMILES IDX 2 14 1 15 3 16 4 17 5 18 12 19 6 20 10 21 7 22 8 23 11 24
REMARK SMILES IDX 9 26 37 28 23 30 24 31 25 32 26 33 27 34 28 35 35 36 29 37
REMARK SMILES IDX 33 38 30 39 31 40 34 41 32 43
REMARK H PARENT 17 8 20 12 11 25 9 27 37 29 34 42 32 44
ROOT
ATOM      1  C   UNL     1     -11.218  -3.796 -26.525  1.00  0.00     0.095 C 
ATOM      2  C   UNL     1     -11.329  -3.458 -25.038  1.00  0.00     0.169 C 
ATOM      3  C   UNL     1     -11.118  -1.968 -24.736  1.00  0.00     0.095 C 
ATOM      4  C   UNL     1      -9.907  -1.347 -25.443  1.00  0.00     0.212 C 
ATOM      5  C   UNL     1      -9.933  -1.666 -26.947  1.00  0.00     0.196 C 
ATOM      6  C   UNL     1      -9.985  -3.188 -27.199  1.00  0.00     0.212 C 
ENDROOT
BRANCH   2   7
ATOM      7  O   UNL     1     -12.668  -3.802 -24.588  1.00  0.00    -0.378 OA
ATOM      8  H   UNL     1     -12.594  -4.223 -23.711  1.00  0.00     0.212 HD
ENDBRANCH   2   7
BRANCH   2   9
ATOM      9  C   UNL     1     -10.394  -4.362 -24.201  1.00  0.00     0.335 C 
ATOM     10  O   UNL     1     -10.158  -5.540 -24.414  1.00  0.00    -0.249 OA
BRANCH   9  11
ATOM     11  O   UNL     1      -9.860  -3.688 -23.150  1.00  0.00    -0.479 OA
ATOM     12  H   UNL     1      -9.289  -2.974 -23.527  1.00  0.00     0.296 HD
ENDBRANCH   9  11
ENDBRANCH   2   9
BRANCH   6  13
ATOM     13  O   UNL     1     -10.117  -3.448 -28.616  1.00  0.00    -0.456 OA
BRANCH  13  14
ATOM     14  C   UNL     1      -9.136  -4.211 -29.164  1.00  0.00     0.331 C 
ATOM     15  O   UNL     1      -9.033  -5.423 -29.077  1.00  0.00    -0.247 OA
BRANCH  14  16
ATOM     16  C   UNL     1      -8.199  -3.317 -29.870  1.00  0.00     0.094 C 
ATOM     17  C   UNL     1      -7.111  -2.854 -29.235  1.00  0.00     0.016 C 
BRANCH  17  18
ATOM     18  C   UNL     1      -6.126  -1.953 -29.849  1.00  0.00    -0.021 A 
ATOM     19  C   UNL     1      -6.581  -0.948 -30.717  1.00  0.00     0.058 A 
ATOM     20  C   UNL     1      -4.745  -2.106 -29.642  1.00  0.00     0.012 A 
ATOM     21  C   UNL     1      -5.662  -0.104 -31.336  1.00  0.00     0.157 A 
ATOM     22  C   UNL     1      -3.830  -1.255 -30.267  1.00  0.00     0.051 A 
ATOM     23  C   UNL     1      -4.298  -0.259 -31.108  1.00  0.00     0.157 A 
BRANCH  21  24
ATOM     24  O   UNL     1      -6.054   0.894 -32.185  1.00  0.00    -0.504 OA
ATOM     25  H   UNL     1      -5.788   1.746 -31.798  1.00  0.00     0.293 HD
ENDBRANCH  21  24
BRANCH  23  26
ATOM     26  O   UNL     1      -3.404   0.570 -31.722  1.00  0.00    -0.504 OA
ATOM     27  H   UNL     1      -2.645  -0.008 -31.941  1.00  0.00     0.293 HD
ENDBRANCH  23  26
ENDBRANCH  17  18
ENDBRANCH  14  16
ENDBRANCH  13  14
ENDBRANCH   6  13
BRANCH   5  28
ATOM     28  O   UNL     1      -8.813  -1.048 -27.584  1.00  0.00    -0.385 OA
ATOM     29  H   UNL     1      -9.139  -0.291 -28.115  1.00  0.00     0.211 HD
ENDBRANCH   5  28
BRANCH   4  30
ATOM     30  O   UNL     1      -8.680  -1.863 -24.893  1.00  0.00    -0.456 OA
BRANCH  30  31
ATOM     31  C   UNL     1      -7.969  -1.008 -24.116  1.00  0.00     0.331 C 
ATOM     32  O   UNL     1      -7.950  -0.989 -22.896  1.00  0.00    -0.247 OA
BRANCH  31  33
ATOM     33  C   UNL     1      -7.177  -0.134 -25.002  1.00  0.00     0.094 C 
ATOM     34  C   UNL     1      -6.117  -0.633 -25.656  1.00  0.00     0.016 C 
BRANCH  34  35
ATOM     35  C   UNL     1      -5.276   0.141 -26.581  1.00  0.00    -0.021 A 
ATOM     36  C   UNL     1      -3.874   0.110 -26.525  1.00  0.00     0.058 A 
ATOM     37  C   UNL     1      -5.906   0.989 -27.509  1.00  0.00     0.012 A 
ATOM     38  C   UNL     1      -3.132   0.893 -27.404  1.00  0.00     0.157 A 
ATOM     39  C   UNL     1      -5.153   1.774 -28.387  1.00  0.00     0.051 A 
ATOM     40  C   UNL     1      -3.771   1.716 -28.329  1.00  0.00     0.157 A 
BRANCH  38  41
ATOM     41  O   UNL     1      -1.764   0.894 -27.392  1.00  0.00    -0.504 OA
ATOM     42  H   UNL     1      -1.457   1.553 -28.039  1.00  0.00     0.293 HD
ENDBRANCH  38  41
BRANCH  40  43
ATOM     43  O   UNL     1      -3.034   2.482 -29.183  1.00  0.00    -0.504 OA
ATOM     44  H   UNL     1      -3.107   3.389 -28.822  1.00  0.00     0.293 HD
ENDBRANCH  40  43
ENDBRANCH  34  35
ENDBRANCH  31  33
ENDBRANCH  30  31
ENDBRANCH   4  30
TORSDOF 16
ENDMDL
MODEL 8
REMARK VINA RESULT:      -9.1      2.294      8.910
REMARK SMILES O=C(/C=C/c1ccc(O)c(O)c1)O[C@@H]1C[C@](O)(C(=O)O)C[C@@H](OC(=O)/C=C/c2ccc(O)c(O)c2)[C@@H]1O
REMARK SMILES IDX 15 1 16 2 21 3 22 4 36 5 14 6 17 7 18 9 19 10 20 11 13 13
REMARK SMILES IDX 2 14 1 15 3 16 4 17 5 18 12 19 6 20 10 21 7 22 8 23 11 24
REMARK SMILES IDX 9 26 37 28 23 30 24 31 25 32 26 33 27 34 28 35 35 36 29 37
REMARK SMILES IDX 33 38 30 39 31 40 34 41 32 43
REMARK H PARENT 17 8 20 12 11 25 9 27 37 29 34 42 32 44
ROOT
ATOM      1  C   UNL     1     -11.217  -4.014 -26.055  1.00  0.00     0.095 C 
ATOM      2  C   UNL     1     -11.131  -3.630 -24.578  1.00  0.00     0.169 C 
ATOM      3  C   UNL     1     -10.883  -2.132 -24.352  1.00  0.00     0.095 C 
ATOM      4  C   UNL     1      -9.777  -1.537 -25.232  1.00  0.00     0.212 C 
ATOM      5  C   UNL     1     -10.002  -1.903 -26.709  1.00  0.00     0.196 C 
ATOM      6  C   UNL     1     -10.084  -3.432 -26.904  1.00  0.00     0.212 C 
ENDROOT
BRANCH   2   7
ATOM      7  O   UNL     1     -12.398  -3.955 -23.944  1.00  0.00    -0.378 OA
ATOM      8  H   UNL     1     -12.227  -4.618 -23.248  1.00  0.00     0.212 HD
ENDBRANCH   2   7
BRANCH   2   9
ATOM      9  C   UNL     1     -10.092  -4.510 -23.844  1.00  0.00     0.335 C 
ATOM     10  O   UNL     1      -9.811  -5.666 -24.118  1.00  0.00    -0.249 OA
BRANCH   9  11
ATOM     11  O   UNL     1      -9.519  -3.845 -22.808  1.00  0.00    -0.479 OA
ATOM     12  H   UNL     1      -8.750  -4.388 -22.508  1.00  0.00     0.296 HD
ENDBRANCH   9  11
ENDBRANCH   2   9
BRANCH   6  13
ATOM     13  O   UNL     1     -10.403  -3.735 -28.282  1.00  0.00    -0.456 OA
BRANCH  13  14
ATOM     14  C   UNL     1      -9.427  -4.370 -28.981  1.00  0.00     0.331 C 
ATOM     15  O   UNL     1      -9.170  -5.562 -28.940  1.00  0.00    -0.247 OA
BRANCH  14  16
ATOM     16  C   UNL     1      -8.711  -3.365 -29.790  1.00  0.00     0.094 C 
ATOM     17  C   UNL     1      -9.400  -2.540 -30.593  1.00  0.00     0.016 C 
BRANCH  17  18
ATOM     18  C   UNL     1      -8.778  -1.516 -31.443  1.00  0.00    -0.021 A 
ATOM     19  C   UNL     1      -7.499  -1.044 -31.104  1.00  0.00     0.058 A 
ATOM     20  C   UNL     1      -9.447  -0.952 -32.543  1.00  0.00     0.012 A 
ATOM     21  C   UNL     1      -6.905  -0.049 -31.877  1.00  0.00     0.157 A 
ATOM     22  C   UNL     1      -8.843   0.045 -33.312  1.00  0.00     0.051 A 
ATOM     23  C   UNL     1      -7.575   0.488 -32.972  1.00  0.00     0.157 A 
BRANCH  21  24
ATOM     24  O   UNL     1      -5.659   0.440 -31.593  1.00  0.00    -0.504 OA
ATOM     25  H   UNL     1      -5.572   0.510 -30.627  1.00  0.00     0.293 HD
ENDBRANCH  21  24
BRANCH  23  26
ATOM     26  O   UNL     1      -6.987   1.465 -33.721  1.00  0.00    -0.504 OA
ATOM     27  H   UNL     1      -6.288   1.000 -34.225  1.00  0.00     0.293 HD
ENDBRANCH  23  26
ENDBRANCH  17  18
ENDBRANCH  14  16
ENDBRANCH  13  14
ENDBRANCH   6  13
BRANCH   5  28
ATOM     28  O   UNL     1      -8.976  -1.308 -27.507  1.00  0.00    -0.385 OA
ATOM     29  H   UNL     1      -8.122  -1.408 -27.038  1.00  0.00     0.211 HD
ENDBRANCH   5  28
BRANCH   4  30
ATOM     30  O   UNL     1      -8.487  -2.039 -24.834  1.00  0.00    -0.456 OA
BRANCH  30  31
ATOM     31  C   UNL     1      -7.662  -1.149 -24.229  1.00  0.00     0.331 C 
ATOM     32  O   UNL     1      -7.637  -0.882 -23.039  1.00  0.00    -0.247 OA
BRANCH  31  33
ATOM     33  C   UNL     1      -6.757  -0.593 -25.253  1.00  0.00     0.094 C 
ATOM     34  C   UNL     1      -5.851  -1.388 -25.843  1.00  0.00     0.016 C 
BRANCH  34  35
ATOM     35  C   UNL     1      -4.920  -0.944 -26.891  1.00  0.00    -0.021 A 
ATOM     36  C   UNL     1      -4.858  -1.561 -28.150  1.00  0.00     0.058 A 
ATOM     37  C   UNL     1      -4.020   0.094 -26.593  1.00  0.00     0.012 A 
ATOM     38  C   UNL     1      -3.931  -1.120 -29.089  1.00  0.00     0.157 A 
ATOM     39  C   UNL     1      -3.091   0.531 -27.541  1.00  0.00     0.051 A 
ATOM     40  C   UNL     1      -3.057  -0.079 -28.783  1.00  0.00     0.157 A 
BRANCH  38  41
ATOM     41  O   UNL     1      -3.834  -1.685 -30.331  1.00  0.00    -0.504 OA
ATOM     42  H   UNL     1      -2.891  -1.749 -30.561  1.00  0.00     0.293 HD
ENDBRANCH  38  41
BRANCH  40  43
ATOM     43  O   UNL     1      -2.149   0.344 -29.710  1.00  0.00    -0.504 OA
ATOM     44  H   UNL     1      -1.675  -0.470 -29.975  1.00  0.00     0.293 HD
ENDBRANCH  40  43
ENDBRANCH  34  35
ENDBRANCH  31  33
ENDBRANCH  30  31
ENDBRANCH   4  30
TORSDOF 16
ENDMDL
MODEL 9
REMARK VINA RESULT:      -9.0      1.895      5.788
REMARK SMILES O=C(/C=C/c1ccc(O)c(O)c1)O[C@@H]1C[C@](O)(C(=O)O)C[C@@H](OC(=O)/C=C/c2ccc(O)c(O)c2)[C@@H]1O
REMARK SMILES IDX 15 1 16 2 21 3 22 4 36 5 14 6 17 7 18 9 19 10 20 11 13 13
REMARK SMILES IDX 2 14 1 15 3 16 4 17 5 18 12 19 6 20 10 21 7 22 8 23 11 24
REMARK SMILES IDX 9 26 37 28 23 30 24 31 25 32 26 33 27 34 28 35 35 36 29 37
REMARK SMILES IDX 33 38 30 39 31 40 34 41 32 43
REMARK H PARENT 17 8 20 12 11 25 9 27 37 29 34 42 32 44
ROOT
ATOM      1  C   UNL     1      -6.087  -0.338 -30.757  1.00  0.00     0.095 C 
ATOM      2  C   UNL     1      -5.102   0.642 -30.119  1.00  0.00     0.169 C 
ATOM      3  C   UNL     1      -4.155  -0.018 -29.109  1.00  0.00     0.095 C 
ATOM      4  C   UNL     1      -4.849  -0.961 -28.118  1.00  0.00     0.212 C 
ATOM      5  C   UNL     1      -5.744  -1.966 -28.860  1.00  0.00     0.196 C 
ATOM      6  C   UNL     1      -6.787  -1.246 -29.742  1.00  0.00     0.212 C 
ENDROOT
BRANCH   2   7
ATOM      7  O   UNL     1      -4.277   1.213 -31.172  1.00  0.00    -0.378 OA
ATOM      8  H   UNL     1      -3.425   1.480 -30.777  1.00  0.00     0.212 HD
ENDBRANCH   2   7
BRANCH   2   9
ATOM      9  C   UNL     1      -5.851   1.853 -29.513  1.00  0.00     0.335 C 
ATOM     10  O   UNL     1      -6.940   2.273 -29.870  1.00  0.00    -0.249 OA
BRANCH   9  11
ATOM     11  O   UNL     1      -5.133   2.435 -28.519  1.00  0.00    -0.479 OA
ATOM     12  H   UNL     1      -4.852   1.712 -27.906  1.00  0.00     0.296 HD
ENDBRANCH   9  11
ENDBRANCH   2   9
BRANCH   6  13
ATOM     13  O   UNL     1      -7.539  -2.217 -30.506  1.00  0.00    -0.456 OA
BRANCH  13  14
ATOM     14  C   UNL     1      -8.880  -2.007 -30.559  1.00  0.00     0.331 C 
ATOM     15  O   UNL     1      -9.539  -1.811 -31.567  1.00  0.00    -0.247 OA
BRANCH  14  16
ATOM     16  C   UNL     1      -9.406  -2.037 -29.181  1.00  0.00     0.094 C 
ATOM     17  C   UNL     1      -9.595  -3.213 -28.564  1.00  0.00     0.016 C 
BRANCH  17  18
ATOM     18  C   UNL     1     -10.123  -3.346 -27.199  1.00  0.00    -0.021 A 
ATOM     19  C   UNL     1     -10.814  -4.519 -26.855  1.00  0.00     0.058 A 
ATOM     20  C   UNL     1     -10.011  -2.314 -26.252  1.00  0.00     0.012 A 
ATOM     21  C   UNL     1     -11.352  -4.651 -25.576  1.00  0.00     0.157 A 
ATOM     22  C   UNL     1     -10.552  -2.456 -24.972  1.00  0.00     0.051 A 
ATOM     23  C   UNL     1     -11.218  -3.626 -24.645  1.00  0.00     0.157 A 
BRANCH  21  24
ATOM     24  O   UNL     1     -12.028  -5.776 -25.189  1.00  0.00    -0.504 OA
ATOM     25  H   UNL     1     -12.784  -5.899 -25.789  1.00  0.00     0.293 HD
ENDBRANCH  21  24
BRANCH  23  26
ATOM     26  O   UNL     1     -11.751  -3.763 -23.397  1.00  0.00    -0.504 OA
ATOM     27  H   UNL     1     -10.979  -3.927 -22.818  1.00  0.00     0.293 HD
ENDBRANCH  23  26
ENDBRANCH  17  18
ENDBRANCH  14  16
ENDBRANCH  13  14
ENDBRANCH   6  13
BRANCH   5  28
ATOM     28  O   UNL     1      -6.350  -2.851 -27.916  1.00  0.00    -0.385 OA
ATOM     29  H   UNL     1      -7.286  -2.987 -28.176  1.00  0.00     0.211 HD
ENDBRANCH   5  28
BRANCH   4  30
ATOM     30  O   UNL     1      -5.670  -0.215 -27.199  1.00  0.00    -0.456 OA
BRANCH  30  31
ATOM     31  C   UNL     1      -5.185  -0.082 -25.940  1.00  0.00     0.331 C 
ATOM     32  O   UNL     1      -4.024   0.133 -25.633  1.00  0.00    -0.247 OA
BRANCH  31  33
ATOM     33  C   UNL     1      -6.316  -0.188 -24.999  1.00  0.00     0.094 C 
ATOM     34  C   UNL     1      -6.397  -1.240 -24.169  1.00  0.00     0.016 C 
BRANCH  34  35
ATOM     35  C   UNL     1      -7.465  -1.430 -23.177  1.00  0.00    -0.021 A 
ATOM     36  C   UNL     1      -7.704  -2.668 -22.560  1.00  0.00     0.058 A 
ATOM     37  C   UNL     1      -8.312  -0.346 -22.888  1.00  0.00     0.012 A 
ATOM     38  C   UNL     1      -8.754  -2.795 -21.655  1.00  0.00     0.157 A 
ATOM     39  C   UNL     1      -9.365  -0.482 -21.979  1.00  0.00     0.051 A 
ATOM     40  C   UNL     1      -9.574  -1.707 -21.367  1.00  0.00     0.157 A 
BRANCH  38  41
ATOM     41  O   UNL     1      -9.025  -3.978 -21.024  1.00  0.00    -0.504 OA
ATOM     42  H   UNL     1      -9.786  -3.839 -20.435  1.00  0.00     0.293 HD
ENDBRANCH  38  41
BRANCH  40  43
ATOM     43  O   UNL     1     -10.602  -1.844 -20.481  1.00  0.00    -0.504 OA
ATOM     44  H   UNL     1     -10.164  -2.019 -19.624  1.00  0.00     0.293 HD
ENDBRANCH  40  43
ENDBRANCH  34  35
ENDBRANCH  31  33
ENDBRANCH  30  31
ENDBRANCH   4  30
TORSDOF 16
ENDMDL
MODEL 10
REMARK VINA RESULT:      -8.9      2.166      8.232
REMARK SMILES O=C(/C=C/c1ccc(O)c(O)c1)O[C@@H]1C[C@](O)(C(=O)O)C[C@@H](OC(=O)/C=C/c2ccc(O)c(O)c2)[C@@H]1O
REMARK SMILES IDX 15 1 16 2 21 3 22 4 36 5 14 6 17 7 18 9 19 10 20 11 13 13
REMARK SMILES IDX 2 14 1 15 3 16 4 17 5 18 12 19 6 20 10 21 7 22 8 23 11 24
REMARK SMILES IDX 9 26 37 28 23 30 24 31 25 32 26 33 27 34 28 35 35 36 29 37
REMARK SMILES IDX 33 38 30 39 31 40 34 41 32 43
REMARK H PARENT 17 8 20 12 11 25 9 27 37 29 34 42 32 44
ROOT
ATOM      1  C   UNL     1     -10.279  -2.185 -22.284  1.00  0.00     0.095 C 
ATOM      2  C   UNL     1      -8.941  -1.766 -21.675  1.00  0.00     0.169 C 
ATOM      3  C   UNL     1      -8.391  -0.457 -22.257  1.00  0.00     0.095 C 
ATOM      4  C   UNL     1      -8.450  -0.374 -23.787  1.00  0.00     0.212 C 
ATOM      5  C   UNL     1      -9.859  -0.724 -24.296  1.00  0.00     0.196 C 
ATOM      6  C   UNL     1     -10.301  -2.121 -23.813  1.00  0.00     0.212 C 
ENDROOT
BRANCH   2   7
ATOM      7  O   UNL     1      -9.131  -1.556 -20.249  1.00  0.00    -0.378 OA
ATOM      8  H   UNL     1     -10.085  -1.629 -20.057  1.00  0.00     0.212 HD
ENDBRANCH   2   7
BRANCH   2   9
ATOM      9  C   UNL     1      -7.915  -2.921 -21.764  1.00  0.00     0.335 C 
ATOM     10  O   UNL     1      -8.180  -4.108 -21.860  1.00  0.00    -0.249 OA
BRANCH   9  11
ATOM     11  O   UNL     1      -6.640  -2.459 -21.699  1.00  0.00    -0.479 OA
ATOM     12  H   UNL     1      -6.456  -2.254 -20.750  1.00  0.00     0.296 HD
ENDBRANCH   9  11
ENDBRANCH   2   9
BRANCH   6  13
ATOM     13  O   UNL     1     -11.667  -2.372 -24.218  1.00  0.00    -0.456 OA
BRANCH  13  14
ATOM     14  C   UNL     1     -11.943  -3.651 -24.582  1.00  0.00     0.331 C 
ATOM     15  O   UNL     1     -12.816  -4.362 -24.110  1.00  0.00    -0.247 OA
BRANCH  14  16
ATOM     16  C   UNL     1     -10.989  -4.046 -25.636  1.00  0.00     0.094 C 
ATOM     17  C   UNL     1     -10.969  -3.381 -26.801  1.00  0.00     0.016 C 
BRANCH  17  18
ATOM     18  C   UNL     1     -10.065  -3.706 -27.913  1.00  0.00    -0.021 A 
ATOM     19  C   UNL     1      -9.348  -2.665 -28.525  1.00  0.00     0.058 A 
ATOM     20  C   UNL     1      -9.945  -5.011 -28.420  1.00  0.00     0.012 A 
ATOM     21  C   UNL     1      -8.511  -2.946 -29.603  1.00  0.00     0.157 A 
ATOM     22  C   UNL     1      -9.103  -5.283 -29.501  1.00  0.00     0.051 A 
ATOM     23  C   UNL     1      -8.392  -4.247 -30.083  1.00  0.00     0.157 A 
BRANCH  21  24
ATOM     24  O   UNL     1      -7.786  -1.969 -30.229  1.00  0.00    -0.504 OA
ATOM     25  H   UNL     1      -8.390  -1.458 -30.796  1.00  0.00     0.293 HD
ENDBRANCH  21  24
BRANCH  23  26
ATOM     26  O   UNL     1      -7.573  -4.512 -31.141  1.00  0.00    -0.504 OA
ATOM     27  H   UNL     1      -8.113  -5.072 -31.735  1.00  0.00     0.293 HD
ENDBRANCH  23  26
ENDBRANCH  17  18
ENDBRANCH  14  16
ENDBRANCH  13  14
ENDBRANCH   6  13
BRANCH   5  28
ATOM     28  O   UNL     1      -9.892  -0.605 -25.720  1.00  0.00    -0.385 OA
ATOM     29  H   UNL     1      -9.140  -1.112 -26.090  1.00  0.00     0.211 HD
ENDBRANCH   5  28
BRANCH   4  30
ATOM     30  O   UNL     1      -7.514  -1.293 -24.381  1.00  0.00    -0.456 OA
BRANCH  30  31
ATOM     31  C   UNL     1      -6.244  -0.839 -24.526  1.00  0.00     0.331 C 
ATOM     32  O   UNL     1      -5.457  -0.599 -23.625  1.00  0.00    -0.247 OA
BRANCH  31  33
ATOM     33  C   UNL     1      -5.955  -0.736 -25.969  1.00  0.00     0.094 C 
ATOM     34  C   UNL     1      -4.683  -0.658 -26.390  1.00  0.00     0.016 C 
BRANCH  34  35
ATOM     35  C   UNL     1      -4.284  -0.579 -27.803  1.00  0.00    -0.021 A 
ATOM     36  C   UNL     1      -4.415   0.599 -28.554  1.00  0.00     0.058 A 
ATOM     37  C   UNL     1      -3.814  -1.744 -28.433  1.00  0.00     0.012 A 
ATOM     38  C   UNL     1      -4.052   0.603 -29.898  1.00  0.00     0.157 A 
ATOM     39  C   UNL     1      -3.454  -1.733 -29.783  1.00  0.00     0.051 A 
ATOM     40  C   UNL     1      -3.573  -0.556 -30.504  1.00  0.00     0.157 A 
BRANCH  38  41
ATOM     41  O   UNL     1      -4.157   1.726 -30.672  1.00  0.00    -0.504 OA
ATOM     42  H   UNL     1      -4.536   2.435 -30.124  1.00  0.00     0.293 HD
ENDBRANCH  38  41
BRANCH  40  43
ATOM     43  O   UNL     1      -3.225  -0.543 -31.823  1.00  0.00    -0.504 OA
ATOM     44  H   UNL     1      -2.502  -1.198 -31.891  1.00  0.00     0.293 HD
ENDBRANCH  40  43
ENDBRANCH  34  35
ENDBRANCH  31  33
ENDBRANCH  30  31
ENDBRANCH   4  30
TORSDOF 16
ENDMDL
