MODEL 1
REMARK VINA RESULT:      -7.9      0.000      0.000
REMARK SMILES O=C(/C=C/c1ccc(O)c(O)c1)O[C@H](Cc1ccc(O)c(O)c1)C(=O)O
REMARK SMILES IDX 13 1 14 2 15 3 16 4 17 5 18 6 19 7 23 8 21 9 20 10 22 12
REMARK SMILES IDX 24 14 25 15 26 16 2 18 1 19 3 20 4 21 5 22 12 23 6 24 10 25
REMARK SMILES IDX 7 26 8 27 11 28 9 30
REMARK H PARENT 20 11 22 13 26 17 11 29 9 31
ROOT
ATOM      1  O   UNL     1      -8.233  -0.053 -32.371  1.00  0.00    -0.447 OA
ENDROOT
BRANCH   1   2
ATOM      2  C   UNL     1      -9.353   0.502 -31.659  1.00  0.00     0.290 C 
BRANCH   2   3
ATOM      3  C   UNL     1      -9.712  -0.452 -30.507  1.00  0.00     0.093 C 
BRANCH   3   4
ATOM      4  C   UNL     1      -8.527  -0.781 -29.623  1.00  0.00    -0.040 A 
ATOM      5  C   UNL     1      -7.882  -2.025 -29.736  1.00  0.00     0.008 A 
ATOM      6  C   UNL     1      -6.779  -2.337 -28.934  1.00  0.00     0.050 A 
ATOM      7  C   UNL     1      -6.320  -1.400 -28.019  1.00  0.00     0.157 A 
ATOM      8  C   UNL     1      -8.059   0.146 -28.680  1.00  0.00     0.054 A 
ATOM      9  C   UNL     1      -6.958  -0.168 -27.896  1.00  0.00     0.157 A 
BRANCH   7  10
ATOM     10  O   UNL     1      -5.242  -1.641 -27.212  1.00  0.00    -0.504 OA
ATOM     11  H   UNL     1      -4.849  -2.490 -27.480  1.00  0.00     0.293 HD
ENDBRANCH   7  10
BRANCH   9  12
ATOM     12  O   UNL     1      -6.499   0.750 -26.996  1.00  0.00    -0.504 OA
ATOM     13  H   UNL     1      -6.314   0.230 -26.188  1.00  0.00     0.293 HD
ENDBRANCH   9  12
ENDBRANCH   3   4
ENDBRANCH   2   3
BRANCH   2  14
ATOM     14  C   UNL     1     -10.574   0.690 -32.571  1.00  0.00     0.345 C 
ATOM     15  O   UNL     1     -11.299  -0.217 -32.956  1.00  0.00    -0.248 OA
BRANCH  14  16
ATOM     16  O   UNL     1     -10.806   1.978 -32.923  1.00  0.00    -0.478 OA
ATOM     17  H   UNL     1     -11.724   2.150 -33.247  1.00  0.00     0.296 HD
ENDBRANCH  14  16
ENDBRANCH   2  14
ENDBRANCH   1   2
BRANCH   1  18
ATOM     18  C   UNL     1      -7.378   0.856 -32.891  1.00  0.00     0.331 C 
ATOM     19  O   UNL     1      -7.420   1.280 -34.035  1.00  0.00    -0.247 OA
BRANCH  18  20
ATOM     20  C   UNL     1      -6.367   1.195 -31.876  1.00  0.00     0.094 C 
ATOM     21  C   UNL     1      -5.457   0.281 -31.509  1.00  0.00     0.016 C 
BRANCH  21  22
ATOM     22  C   UNL     1      -4.430   0.529 -30.490  1.00  0.00    -0.021 A 
ATOM     23  C   UNL     1      -4.411   1.714 -29.736  1.00  0.00     0.058 A 
ATOM     24  C   UNL     1      -3.484  -0.473 -30.221  1.00  0.00     0.012 A 
ATOM     25  C   UNL     1      -3.444   1.886 -28.751  1.00  0.00     0.157 A 
ATOM     26  C   UNL     1      -2.513  -0.289 -29.232  1.00  0.00     0.051 A 
ATOM     27  C   UNL     1      -2.502   0.891 -28.506  1.00  0.00     0.157 A 
BRANCH  25  28
ATOM     28  O   UNL     1      -3.383   3.018 -27.987  1.00  0.00    -0.504 OA
ATOM     29  H   UNL     1      -4.238   3.132 -27.537  1.00  0.00     0.293 HD
ENDBRANCH  25  28
BRANCH  27  30
ATOM     30  O   UNL     1      -1.559   1.067 -27.535  1.00  0.00    -0.504 OA
ATOM     31  H   UNL     1      -2.063   1.383 -26.758  1.00  0.00     0.293 HD
ENDBRANCH  27  30
ENDBRANCH  21  22
ENDBRANCH  18  20
ENDBRANCH   1  18
TORSDOF 12
ENDMDL
MODEL 2
REMARK VINA RESULT:      -7.8      3.032      7.013
REMARK SMILES O=C(/C=C/c1ccc(O)c(O)c1)O[C@H](Cc1ccc(O)c(O)c1)C(=O)O
REMARK SMILES IDX 13 1 14 2 15 3 16 4 17 5 18 6 19 7 23 8 21 9 20 10 22 12
REMARK SMILES IDX 24 14 25 15 26 16 2 18 1 19 3 20 4 21 5 22 12 23 6 24 10 25
REMARK SMILES IDX 7 26 8 27 11 28 9 30
REMARK H PARENT 20 11 22 13 26 17 11 29 9 31
ROOT
ATOM      1  O   UNL     1      -6.024  -0.773 -30.695  1.00  0.00    -0.447 OA
ENDROOT
BRANCH   1   2
ATOM      2  C   UNL     1      -5.373   0.508 -30.641  1.00  0.00     0.290 C 
BRANCH   2   3
ATOM      3  C   UNL     1      -6.451   1.600 -30.758  1.00  0.00     0.093 C 
BRANCH   3   4
ATOM      4  C   UNL     1      -7.676   1.141 -31.520  1.00  0.00    -0.040 A 
ATOM      5  C   UNL     1      -7.640   1.032 -32.921  1.00  0.00     0.008 A 
ATOM      6  C   UNL     1      -8.761   0.597 -33.636  1.00  0.00     0.050 A 
ATOM      7  C   UNL     1      -9.920   0.268 -32.945  1.00  0.00     0.157 A 
ATOM      8  C   UNL     1      -8.862   0.820 -30.842  1.00  0.00     0.054 A 
ATOM      9  C   UNL     1      -9.965   0.379 -31.558  1.00  0.00     0.157 A 
BRANCH   7  10
ATOM     10  O   UNL     1     -11.045  -0.171 -33.585  1.00  0.00    -0.504 OA
ATOM     11  H   UNL     1     -11.772  -0.193 -32.938  1.00  0.00     0.293 HD
ENDBRANCH   7  10
BRANCH   9  12
ATOM     12  O   UNL     1     -11.107   0.051 -30.885  1.00  0.00    -0.504 OA
ATOM     13  H   UNL     1     -11.829   0.267 -31.508  1.00  0.00     0.293 HD
ENDBRANCH   9  12
ENDBRANCH   3   4
ENDBRANCH   2   3
BRANCH   2  14
ATOM     14  C   UNL     1      -4.345   0.676 -31.770  1.00  0.00     0.345 C 
ATOM     15  O   UNL     1      -4.332   1.606 -32.564  1.00  0.00    -0.248 OA
BRANCH  14  16
ATOM     16  O   UNL     1      -3.415  -0.308 -31.818  1.00  0.00    -0.478 OA
ATOM     17  H   UNL     1      -3.374  -0.866 -31.003  1.00  0.00     0.296 HD
ENDBRANCH  14  16
ENDBRANCH   2  14
ENDBRANCH   1   2
BRANCH   1  18
ATOM     18  C   UNL     1      -5.532  -1.701 -29.843  1.00  0.00     0.331 C 
ATOM     19  O   UNL     1      -4.345  -1.904 -29.640  1.00  0.00    -0.247 OA
BRANCH  18  20
ATOM     20  C   UNL     1      -6.654  -2.453 -29.257  1.00  0.00     0.094 C 
ATOM     21  C   UNL     1      -7.602  -2.966 -30.055  1.00  0.00     0.016 C 
BRANCH  21  22
ATOM     22  C   UNL     1      -8.764  -3.708 -29.552  1.00  0.00    -0.021 A 
ATOM     23  C   UNL     1      -9.529  -4.537 -30.390  1.00  0.00     0.058 A 
ATOM     24  C   UNL     1      -9.076  -3.637 -28.185  1.00  0.00     0.012 A 
ATOM     25  C   UNL     1     -10.595  -5.256 -29.859  1.00  0.00     0.157 A 
ATOM     26  C   UNL     1     -10.152  -4.360 -27.661  1.00  0.00     0.051 A 
ATOM     27  C   UNL     1     -10.903  -5.163 -28.505  1.00  0.00     0.157 A 
BRANCH  25  28
ATOM     28  O   UNL     1     -11.369  -6.078 -30.630  1.00  0.00    -0.504 OA
ATOM     29  H   UNL     1     -12.226  -5.644 -30.776  1.00  0.00     0.293 HD
ENDBRANCH  25  28
BRANCH  27  30
ATOM     30  O   UNL     1     -11.948  -5.874 -27.992  1.00  0.00    -0.504 OA
ATOM     31  H   UNL     1     -12.742  -5.470 -28.397  1.00  0.00     0.293 HD
ENDBRANCH  27  30
ENDBRANCH  21  22
ENDBRANCH  18  20
ENDBRANCH   1  18
TORSDOF 12
ENDMDL
MODEL 3
REMARK VINA RESULT:      -7.5      2.270      3.852
REMARK SMILES O=C(/C=C/c1ccc(O)c(O)c1)O[C@H](Cc1ccc(O)c(O)c1)C(=O)O
REMARK SMILES IDX 13 1 14 2 15 3 16 4 17 5 18 6 19 7 23 8 21 9 20 10 22 12
REMARK SMILES IDX 24 14 25 15 26 16 2 18 1 19 3 20 4 21 5 22 12 23 6 24 10 25
REMARK SMILES IDX 7 26 8 27 11 28 9 30
REMARK H PARENT 20 11 22 13 26 17 11 29 9 31
ROOT
ATOM      1  O   UNL     1      -6.419  -0.561 -31.523  1.00  0.00    -0.447 OA
ENDROOT
BRANCH   1   2
ATOM      2  C   UNL     1      -6.851  -1.258 -30.341  1.00  0.00     0.290 C 
BRANCH   2   3
ATOM      3  C   UNL     1      -5.676  -2.107 -29.827  1.00  0.00     0.093 C 
BRANCH   3   4
ATOM      4  C   UNL     1      -4.565  -1.273 -29.223  1.00  0.00    -0.040 A 
ATOM      5  C   UNL     1      -3.373  -1.058 -29.937  1.00  0.00     0.008 A 
ATOM      6  C   UNL     1      -2.344  -0.279 -29.396  1.00  0.00     0.050 A 
ATOM      7  C   UNL     1      -2.511   0.286 -28.140  1.00  0.00     0.157 A 
ATOM      8  C   UNL     1      -4.707  -0.707 -27.947  1.00  0.00     0.054 A 
ATOM      9  C   UNL     1      -3.685   0.072 -27.424  1.00  0.00     0.157 A 
BRANCH   7  10
ATOM     10  O   UNL     1      -1.546   1.064 -27.561  1.00  0.00    -0.504 OA
ATOM     11  H   UNL     1      -1.071   1.533 -28.269  1.00  0.00     0.293 HD
ENDBRANCH   7  10
BRANCH   9  12
ATOM     12  O   UNL     1      -3.844   0.634 -26.190  1.00  0.00    -0.504 OA
ATOM     13  H   UNL     1      -4.154   1.543 -26.372  1.00  0.00     0.293 HD
ENDBRANCH   9  12
ENDBRANCH   3   4
ENDBRANCH   2   3
BRANCH   2  14
ATOM     14  C   UNL     1      -8.058  -2.165 -30.621  1.00  0.00     0.345 C 
ATOM     15  O   UNL     1      -8.525  -2.965 -29.823  1.00  0.00    -0.248 OA
BRANCH  14  16
ATOM     16  O   UNL     1      -8.595  -2.003 -31.855  1.00  0.00    -0.478 OA
ATOM     17  H   UNL     1      -9.050  -2.806 -32.207  1.00  0.00     0.296 HD
ENDBRANCH  14  16
ENDBRANCH   2  14
ENDBRANCH   1   2
BRANCH   1  18
ATOM     18  C   UNL     1      -6.827   0.725 -31.611  1.00  0.00     0.331 C 
ATOM     19  O   UNL     1      -7.940   1.082 -31.962  1.00  0.00    -0.247 OA
BRANCH  18  20
ATOM     20  C   UNL     1      -5.698   1.608 -31.273  1.00  0.00     0.094 C 
ATOM     21  C   UNL     1      -5.841   2.538 -30.318  1.00  0.00     0.016 C 
BRANCH  21  22
ATOM     22  C   UNL     1      -4.775   3.472 -29.936  1.00  0.00    -0.021 A 
ATOM     23  C   UNL     1      -4.431   4.568 -30.744  1.00  0.00     0.058 A 
ATOM     24  C   UNL     1      -4.131   3.300 -28.700  1.00  0.00     0.012 A 
ATOM     25  C   UNL     1      -3.443   5.452 -30.320  1.00  0.00     0.157 A 
ATOM     26  C   UNL     1      -3.138   4.190 -28.284  1.00  0.00     0.051 A 
ATOM     27  C   UNL     1      -2.802   5.259 -29.100  1.00  0.00     0.157 A 
BRANCH  25  28
ATOM     28  O   UNL     1      -3.072   6.535 -31.066  1.00  0.00    -0.504 OA
ATOM     29  H   UNL     1      -2.642   7.180 -30.479  1.00  0.00     0.293 HD
ENDBRANCH  25  28
BRANCH  27  30
ATOM     30  O   UNL     1      -1.837   6.133 -28.690  1.00  0.00    -0.504 OA
ATOM     31  H   UNL     1      -2.073   6.341 -27.763  1.00  0.00     0.293 HD
ENDBRANCH  27  30
ENDBRANCH  21  22
ENDBRANCH  18  20
ENDBRANCH   1  18
TORSDOF 12
ENDMDL
MODEL 4
REMARK VINA RESULT:      -7.5      1.765      6.158
REMARK SMILES O=C(/C=C/c1ccc(O)c(O)c1)O[C@H](Cc1ccc(O)c(O)c1)C(=O)O
REMARK SMILES IDX 13 1 14 2 15 3 16 4 17 5 18 6 19 7 23 8 21 9 20 10 22 12
REMARK SMILES IDX 24 14 25 15 26 16 2 18 1 19 3 20 4 21 5 22 12 23 6 24 10 25
REMARK SMILES IDX 7 26 8 27 11 28 9 30
REMARK H PARENT 20 11 22 13 26 17 11 29 9 31
ROOT
ATOM      1  O   UNL     1      -4.294   1.639 -28.448  1.00  0.00    -0.447 OA
ENDROOT
BRANCH   1   2
ATOM      2  C   UNL     1      -3.678   0.419 -28.896  1.00  0.00     0.290 C 
BRANCH   2   3
ATOM      3  C   UNL     1      -4.147  -0.722 -27.978  1.00  0.00     0.093 C 
BRANCH   3   4
ATOM      4  C   UNL     1      -5.497  -1.282 -28.374  1.00  0.00    -0.040 A 
ATOM      5  C   UNL     1      -5.732  -1.700 -29.695  1.00  0.00     0.008 A 
ATOM      6  C   UNL     1      -6.970  -2.230 -30.072  1.00  0.00     0.050 A 
ATOM      7  C   UNL     1      -7.975  -2.345 -29.121  1.00  0.00     0.157 A 
ATOM      8  C   UNL     1      -6.532  -1.390 -27.432  1.00  0.00     0.054 A 
ATOM      9  C   UNL     1      -7.753  -1.927 -27.812  1.00  0.00     0.157 A 
BRANCH   7  10
ATOM     10  O   UNL     1      -9.204  -2.862 -29.424  1.00  0.00    -0.504 OA
ATOM     11  H   UNL     1      -9.533  -2.413 -30.221  1.00  0.00     0.293 HD
ENDBRANCH   7  10
BRANCH   9  12
ATOM     12  O   UNL     1      -8.745  -2.045 -26.881  1.00  0.00    -0.504 OA
ATOM     13  H   UNL     1      -9.248  -1.209 -26.951  1.00  0.00     0.293 HD
ENDBRANCH   9  12
ENDBRANCH   3   4
ENDBRANCH   2   3
BRANCH   2  14
ATOM     14  C   UNL     1      -2.146   0.507 -28.867  1.00  0.00     0.345 C 
ATOM     15  O   UNL     1      -1.416   0.219 -29.805  1.00  0.00    -0.248 OA
BRANCH  14  16
ATOM     16  O   UNL     1      -1.642   0.953 -27.691  1.00  0.00    -0.478 OA
ATOM     17  H   UNL     1      -2.296   1.434 -27.127  1.00  0.00     0.296 HD
ENDBRANCH  14  16
ENDBRANCH   2  14
ENDBRANCH   1   2
BRANCH   1  18
ATOM     18  C   UNL     1      -4.731   2.456 -29.433  1.00  0.00     0.331 C 
ATOM     19  O   UNL     1      -4.156   3.464 -29.812  1.00  0.00    -0.247 OA
BRANCH  18  20
ATOM     20  C   UNL     1      -6.029   1.962 -29.922  1.00  0.00     0.094 C 
ATOM     21  C   UNL     1      -6.185   1.668 -31.221  1.00  0.00     0.016 C 
BRANCH  21  22
ATOM     22  C   UNL     1      -7.450   1.192 -31.794  1.00  0.00    -0.021 A 
ATOM     23  C   UNL     1      -8.584   0.971 -30.995  1.00  0.00     0.058 A 
ATOM     24  C   UNL     1      -7.542   1.017 -33.184  1.00  0.00     0.012 A 
ATOM     25  C   UNL     1      -9.774   0.562 -31.590  1.00  0.00     0.157 A 
ATOM     26  C   UNL     1      -8.740   0.602 -33.772  1.00  0.00     0.051 A 
ATOM     27  C   UNL     1      -9.846   0.377 -32.967  1.00  0.00     0.157 A 
BRANCH  25  28
ATOM     28  O   UNL     1     -10.907   0.337 -30.860  1.00  0.00    -0.504 OA
ATOM     29  H   UNL     1     -10.896   0.926 -30.086  1.00  0.00     0.293 HD
ENDBRANCH  25  28
BRANCH  27  30
ATOM     30  O   UNL     1     -11.018  -0.021 -33.542  1.00  0.00    -0.504 OA
ATOM     31  H   UNL     1     -11.081   0.509 -34.362  1.00  0.00     0.293 HD
ENDBRANCH  27  30
ENDBRANCH  21  22
ENDBRANCH  18  20
ENDBRANCH   1  18
TORSDOF 12
ENDMDL
MODEL 5
REMARK VINA RESULT:      -7.5      1.935      3.404
REMARK SMILES O=C(/C=C/c1ccc(O)c(O)c1)O[C@H](Cc1ccc(O)c(O)c1)C(=O)O
REMARK SMILES IDX 13 1 14 2 15 3 16 4 17 5 18 6 19 7 23 8 21 9 20 10 22 12
REMARK SMILES IDX 24 14 25 15 26 16 2 18 1 19 3 20 4 21 5 22 12 23 6 24 10 25
REMARK SMILES IDX 7 26 8 27 11 28 9 30
REMARK H PARENT 20 11 22 13 26 17 11 29 9 31
ROOT
ATOM      1  O   UNL     1      -8.787  -1.145 -31.294  1.00  0.00    -0.447 OA
ENDROOT
BRANCH   1   2
ATOM      2  C   UNL     1      -8.156  -0.021 -31.931  1.00  0.00     0.290 C 
BRANCH   2   3
ATOM      3  C   UNL     1      -8.574   1.255 -31.180  1.00  0.00     0.093 C 
BRANCH   3   4
ATOM      4  C   UNL     1      -7.435   1.885 -30.406  1.00  0.00    -0.040 A 
ATOM      5  C   UNL     1      -7.536   2.065 -29.016  1.00  0.00     0.008 A 
ATOM      6  C   UNL     1      -6.486   2.633 -28.287  1.00  0.00     0.050 A 
ATOM      7  C   UNL     1      -5.331   3.021 -28.953  1.00  0.00     0.157 A 
ATOM      8  C   UNL     1      -6.266   2.299 -31.063  1.00  0.00     0.054 A 
ATOM      9  C   UNL     1      -5.226   2.852 -30.331  1.00  0.00     0.157 A 
BRANCH   7  10
ATOM     10  O   UNL     1      -4.267   3.575 -28.297  1.00  0.00    -0.504 OA
ATOM     11  H   UNL     1      -3.466   3.407 -28.824  1.00  0.00     0.293 HD
ENDBRANCH   7  10
BRANCH   9  12
ATOM     12  O   UNL     1      -4.086   3.233 -30.979  1.00  0.00    -0.504 OA
ATOM     13  H   UNL     1      -3.783   4.027 -30.496  1.00  0.00     0.293 HD
ENDBRANCH   9  12
ENDBRANCH   3   4
ENDBRANCH   2   3
BRANCH   2  14
ATOM     14  C   UNL     1      -8.555   0.097 -33.409  1.00  0.00     0.345 C 
ATOM     15  O   UNL     1      -9.577  -0.369 -33.891  1.00  0.00    -0.248 OA
BRANCH  14  16
ATOM     16  O   UNL     1      -7.668   0.788 -34.166  1.00  0.00    -0.478 OA
ATOM     17  H   UNL     1      -7.775   1.770 -34.120  1.00  0.00     0.296 HD
ENDBRANCH  14  16
ENDBRANCH   2  14
ENDBRANCH   1   2
BRANCH   1  18
ATOM     18  C   UNL     1      -7.939  -2.079 -30.810  1.00  0.00     0.331 C 
ATOM     19  O   UNL     1      -8.226  -3.250 -30.615  1.00  0.00    -0.247 OA
BRANCH  18  20
ATOM     20  C   UNL     1      -6.647  -1.441 -30.507  1.00  0.00     0.094 C 
ATOM     21  C   UNL     1      -6.169  -1.464 -29.254  1.00  0.00     0.016 C 
BRANCH  21  22
ATOM     22  C   UNL     1      -4.903  -0.833 -28.863  1.00  0.00    -0.021 A 
ATOM     23  C   UNL     1      -3.879  -0.595 -29.794  1.00  0.00     0.058 A 
ATOM     24  C   UNL     1      -4.741  -0.399 -27.537  1.00  0.00     0.012 A 
ATOM     25  C   UNL     1      -2.714   0.046 -29.386  1.00  0.00     0.157 A 
ATOM     26  C   UNL     1      -3.565   0.239 -27.135  1.00  0.00     0.051 A 
ATOM     27  C   UNL     1      -2.560   0.455 -28.064  1.00  0.00     0.157 A 
BRANCH  25  28
ATOM     28  O   UNL     1      -1.688   0.304 -30.252  1.00  0.00    -0.504 OA
ATOM     29  H   UNL     1      -1.843   1.173 -30.661  1.00  0.00     0.293 HD
ENDBRANCH  25  28
BRANCH  27  30
ATOM     30  O   UNL     1      -1.415   1.086 -27.673  1.00  0.00    -0.504 OA
ATOM     31  H   UNL     1      -1.530   2.011 -27.973  1.00  0.00     0.293 HD
ENDBRANCH  27  30
ENDBRANCH  21  22
ENDBRANCH  18  20
ENDBRANCH   1  18
TORSDOF 12
ENDMDL
MODEL 6
REMARK VINA RESULT:      -7.5      1.783      3.192
REMARK SMILES O=C(/C=C/c1ccc(O)c(O)c1)O[C@H](Cc1ccc(O)c(O)c1)C(=O)O
REMARK SMILES IDX 13 1 14 2 15 3 16 4 17 5 18 6 19 7 23 8 21 9 20 10 22 12
REMARK SMILES IDX 24 14 25 15 26 16 2 18 1 19 3 20 4 21 5 22 12 23 6 24 10 25
REMARK SMILES IDX 7 26 8 27 11 28 9 30
REMARK H PARENT 20 11 22 13 26 17 11 29 9 31
ROOT
ATOM      1  O   UNL     1      -9.617  -1.450 -31.088  1.00  0.00    -0.447 OA
ENDROOT
BRANCH   1   2
ATOM      2  C   UNL     1      -9.256  -0.278 -31.840  1.00  0.00     0.290 C 
BRANCH   2   3
ATOM      3  C   UNL     1      -9.207   0.918 -30.874  1.00  0.00     0.093 C 
BRANCH   3   4
ATOM      4  C   UNL     1      -7.806   1.454 -30.670  1.00  0.00    -0.040 A 
ATOM      5  C   UNL     1      -6.997   1.765 -31.776  1.00  0.00     0.008 A 
ATOM      6  C   UNL     1      -5.705   2.273 -31.602  1.00  0.00     0.050 A 
ATOM      7  C   UNL     1      -5.224   2.473 -30.315  1.00  0.00     0.157 A 
ATOM      8  C   UNL     1      -7.295   1.647 -29.377  1.00  0.00     0.054 A 
ATOM      9  C   UNL     1      -6.017   2.162 -29.214  1.00  0.00     0.157 A 
BRANCH   7  10
ATOM     10  O   UNL     1      -3.975   2.975 -30.078  1.00  0.00    -0.504 OA
ATOM     11  H   UNL     1      -4.071   3.793 -29.559  1.00  0.00     0.293 HD
ENDBRANCH   7  10
BRANCH   9  12
ATOM     12  O   UNL     1      -5.539   2.364 -27.951  1.00  0.00    -0.504 OA
ATOM     13  H   UNL     1      -4.924   1.618 -27.800  1.00  0.00     0.293 HD
ENDBRANCH   9  12
ENDBRANCH   3   4
ENDBRANCH   2   3
BRANCH   2  14
ATOM     14  C   UNL     1     -10.258   0.010 -32.967  1.00  0.00     0.345 C 
ATOM     15  O   UNL     1     -11.439  -0.305 -32.943  1.00  0.00    -0.248 OA
BRANCH  14  16
ATOM     16  O   UNL     1      -9.724   0.671 -34.023  1.00  0.00    -0.478 OA
ATOM     17  H   UNL     1      -8.880   1.143 -33.820  1.00  0.00     0.296 HD
ENDBRANCH  14  16
ENDBRANCH   2  14
ENDBRANCH   1   2
BRANCH   1  18
ATOM     18  C   UNL     1      -8.679  -2.422 -31.056  1.00  0.00     0.331 C 
ATOM     19  O   UNL     1      -8.911  -3.620 -31.112  1.00  0.00    -0.247 OA
BRANCH  18  20
ATOM     20  C   UNL     1      -7.355  -1.802 -30.885  1.00  0.00     0.094 C 
ATOM     21  C   UNL     1      -6.621  -2.086 -29.799  1.00  0.00     0.016 C 
BRANCH  21  22
ATOM     22  C   UNL     1      -5.302  -1.495 -29.540  1.00  0.00    -0.021 A 
ATOM     23  C   UNL     1      -4.477  -1.048 -30.585  1.00  0.00     0.058 A 
ATOM     24  C   UNL     1      -4.888  -1.314 -28.211  1.00  0.00     0.012 A 
ATOM     25  C   UNL     1      -3.254  -0.455 -30.289  1.00  0.00     0.157 A 
ATOM     26  C   UNL     1      -3.656  -0.721 -27.923  1.00  0.00     0.051 A 
ATOM     27  C   UNL     1      -2.849  -0.297 -28.967  1.00  0.00     0.157 A 
BRANCH  25  28
ATOM     28  O   UNL     1      -2.414  -0.000 -31.268  1.00  0.00    -0.504 OA
ATOM     29  H   UNL     1      -2.507   0.966 -31.327  1.00  0.00     0.293 HD
ENDBRANCH  25  28
BRANCH  27  30
ATOM     30  O   UNL     1      -1.649   0.289 -28.686  1.00  0.00    -0.504 OA
ATOM     31  H   UNL     1      -1.563   1.003 -29.350  1.00  0.00     0.293 HD
ENDBRANCH  27  30
ENDBRANCH  21  22
ENDBRANCH  18  20
ENDBRANCH   1  18
TORSDOF 12
ENDMDL
MODEL 7
REMARK VINA RESULT:      -7.4      2.099      6.997
REMARK SMILES O=C(/C=C/c1ccc(O)c(O)c1)O[C@H](Cc1ccc(O)c(O)c1)C(=O)O
REMARK SMILES IDX 13 1 14 2 15 3 16 4 17 5 18 6 19 7 23 8 21 9 20 10 22 12
REMARK SMILES IDX 24 14 25 15 26 16 2 18 1 19 3 20 4 21 5 22 12 23 6 24 10 25
REMARK SMILES IDX 7 26 8 27 11 28 9 30
REMARK H PARENT 20 11 22 13 26 17 11 29 9 31
ROOT
ATOM      1  O   UNL     1      -6.752  -1.709 -27.021  1.00  0.00    -0.447 OA
ENDROOT
BRANCH   1   2
ATOM      2  C   UNL     1      -5.757  -0.766 -26.584  1.00  0.00     0.290 C 
BRANCH   2   3
ATOM      3  C   UNL     1      -4.435  -1.096 -27.297  1.00  0.00     0.093 C 
BRANCH   3   4
ATOM      4  C   UNL     1      -4.314  -0.433 -28.653  1.00  0.00    -0.040 A 
ATOM      5  C   UNL     1      -4.950   0.796 -28.900  1.00  0.00     0.008 A 
ATOM      6  C   UNL     1      -4.836   1.426 -30.144  1.00  0.00     0.050 A 
ATOM      7  C   UNL     1      -4.081   0.824 -31.142  1.00  0.00     0.157 A 
ATOM      8  C   UNL     1      -3.570  -1.033 -29.680  1.00  0.00     0.054 A 
ATOM      9  C   UNL     1      -3.454  -0.396 -30.907  1.00  0.00     0.157 A 
BRANCH   7  10
ATOM     10  O   UNL     1      -3.924   1.393 -32.376  1.00  0.00    -0.504 OA
ATOM     11  H   UNL     1      -3.032   1.175 -32.697  1.00  0.00     0.293 HD
ENDBRANCH   7  10
BRANCH   9  12
ATOM     12  O   UNL     1      -2.711  -0.982 -31.892  1.00  0.00    -0.504 OA
ATOM     13  H   UNL     1      -2.818  -1.942 -31.741  1.00  0.00     0.293 HD
ENDBRANCH   9  12
ENDBRANCH   3   4
ENDBRANCH   2   3
BRANCH   2  14
ATOM     14  C   UNL     1      -5.549  -0.817 -25.063  1.00  0.00     0.345 C 
ATOM     15  O   UNL     1      -5.017   0.066 -24.406  1.00  0.00    -0.248 OA
BRANCH  14  16
ATOM     16  O   UNL     1      -6.024  -1.944 -24.480  1.00  0.00    -0.478 OA
ATOM     17  H   UNL     1      -5.321  -2.580 -24.198  1.00  0.00     0.296 HD
ENDBRANCH  14  16
ENDBRANCH   2  14
ENDBRANCH   1   2
BRANCH   1  18
ATOM     18  C   UNL     1      -8.029  -1.360 -26.751  1.00  0.00     0.331 C 
ATOM     19  O   UNL     1      -8.658  -1.717 -25.767  1.00  0.00    -0.247 OA
BRANCH  18  20
ATOM     20  C   UNL     1      -8.544  -0.539 -27.859  1.00  0.00     0.094 C 
ATOM     21  C   UNL     1      -8.572  -1.038 -29.103  1.00  0.00     0.016 C 
BRANCH  21  22
ATOM     22  C   UNL     1      -9.048  -0.280 -30.266  1.00  0.00    -0.021 A 
ATOM     23  C   UNL     1     -10.148  -0.710 -31.027  1.00  0.00     0.058 A 
ATOM     24  C   UNL     1      -8.427   0.939 -30.583  1.00  0.00     0.012 A 
ATOM     25  C   UNL     1     -10.591   0.065 -32.094  1.00  0.00     0.157 A 
ATOM     26  C   UNL     1      -8.876   1.708 -31.660  1.00  0.00     0.051 A 
ATOM     27  C   UNL     1      -9.954   1.263 -32.407  1.00  0.00     0.157 A 
BRANCH  25  28
ATOM     28  O   UNL     1     -11.657  -0.306 -32.864  1.00  0.00    -0.504 OA
ATOM     29  H   UNL     1     -12.391   0.307 -32.688  1.00  0.00     0.293 HD
ENDBRANCH  25  28
BRANCH  27  30
ATOM     30  O   UNL     1     -10.398   2.018 -33.454  1.00  0.00    -0.504 OA
ATOM     31  H   UNL     1     -10.876   1.386 -34.027  1.00  0.00     0.293 HD
ENDBRANCH  27  30
ENDBRANCH  21  22
ENDBRANCH  18  20
ENDBRANCH   1  18
TORSDOF 12
ENDMDL
MODEL 8
REMARK VINA RESULT:      -7.4      2.047      2.980
REMARK SMILES O=C(/C=C/c1ccc(O)c(O)c1)O[C@H](Cc1ccc(O)c(O)c1)C(=O)O
REMARK SMILES IDX 13 1 14 2 15 3 16 4 17 5 18 6 19 7 23 8 21 9 20 10 22 12
REMARK SMILES IDX 24 14 25 15 26 16 2 18 1 19 3 20 4 21 5 22 12 23 6 24 10 25
REMARK SMILES IDX 7 26 8 27 11 28 9 30
REMARK H PARENT 20 11 22 13 26 17 11 29 9 31
ROOT
ATOM      1  O   UNL     1      -8.247   0.137 -33.125  1.00  0.00    -0.447 OA
ENDROOT
BRANCH   1   2
ATOM      2  C   UNL     1      -9.342  -0.044 -32.210  1.00  0.00     0.290 C 
BRANCH   2   3
ATOM      3  C   UNL     1      -9.460  -1.545 -31.892  1.00  0.00     0.093 C 
BRANCH   3   4
ATOM      4  C   UNL     1      -9.410  -1.839 -30.407  1.00  0.00    -0.040 A 
ATOM      5  C   UNL     1      -9.736  -0.838 -29.475  1.00  0.00     0.008 A 
ATOM      6  C   UNL     1      -9.706  -1.099 -28.101  1.00  0.00     0.050 A 
ATOM      7  C   UNL     1      -9.353  -2.367 -27.660  1.00  0.00     0.157 A 
ATOM      8  C   UNL     1      -9.039  -3.109 -29.941  1.00  0.00     0.054 A 
ATOM      9  C   UNL     1      -9.022  -3.362 -28.577  1.00  0.00     0.157 A 
BRANCH   7  10
ATOM     10  O   UNL     1      -9.313  -2.688 -26.332  1.00  0.00    -0.504 OA
ATOM     11  H   UNL     1      -8.853  -1.971 -25.861  1.00  0.00     0.293 HD
ENDBRANCH   7  10
BRANCH   9  12
ATOM     12  O   UNL     1      -8.678  -4.607 -28.136  1.00  0.00    -0.504 OA
ATOM     13  H   UNL     1      -8.404  -4.472 -27.208  1.00  0.00     0.293 HD
ENDBRANCH   9  12
ENDBRANCH   3   4
ENDBRANCH   2   3
BRANCH   2  14
ATOM     14  C   UNL     1     -10.667   0.463 -32.797  1.00  0.00     0.345 C 
ATOM     15  O   UNL     1     -10.896   1.629 -33.089  1.00  0.00    -0.248 OA
BRANCH  14  16
ATOM     16  O   UNL     1     -11.594  -0.507 -32.985  1.00  0.00    -0.478 OA
ATOM     17  H   UNL     1     -12.349  -0.239 -33.564  1.00  0.00     0.296 HD
ENDBRANCH  14  16
ENDBRANCH   2  14
ENDBRANCH   1   2
BRANCH   1  18
ATOM     18  C   UNL     1      -7.228   0.892 -32.656  1.00  0.00     0.331 C 
ATOM     19  O   UNL     1      -6.547   1.646 -33.335  1.00  0.00    -0.247 OA
BRANCH  18  20
ATOM     20  C   UNL     1      -7.046   0.612 -31.223  1.00  0.00     0.094 C 
ATOM     21  C   UNL     1      -6.087  -0.237 -30.826  1.00  0.00     0.016 C 
BRANCH  21  22
ATOM     22  C   UNL     1      -5.852  -0.589 -29.420  1.00  0.00    -0.021 A 
ATOM     23  C   UNL     1      -5.981   0.360 -28.392  1.00  0.00     0.058 A 
ATOM     24  C   UNL     1      -5.557  -1.922 -29.094  1.00  0.00     0.012 A 
ATOM     25  C   UNL     1      -5.792  -0.031 -27.070  1.00  0.00     0.157 A 
ATOM     26  C   UNL     1      -5.364  -2.304 -27.763  1.00  0.00     0.051 A 
ATOM     27  C   UNL     1      -5.482  -1.353 -26.762  1.00  0.00     0.157 A 
BRANCH  25  28
ATOM     28  O   UNL     1      -5.907   0.851 -26.032  1.00  0.00    -0.504 OA
ATOM     29  H   UNL     1      -6.849   0.930 -25.800  1.00  0.00     0.293 HD
ENDBRANCH  25  28
BRANCH  27  30
ATOM     30  O   UNL     1      -5.302  -1.727 -25.462  1.00  0.00    -0.504 OA
ATOM     31  H   UNL     1      -4.548  -2.350 -25.489  1.00  0.00     0.293 HD
ENDBRANCH  27  30
ENDBRANCH  21  22
ENDBRANCH  18  20
ENDBRANCH   1  18
TORSDOF 12
ENDMDL
MODEL 9
REMARK VINA RESULT:      -7.4      2.670      6.674
REMARK SMILES O=C(/C=C/c1ccc(O)c(O)c1)O[C@H](Cc1ccc(O)c(O)c1)C(=O)O
REMARK SMILES IDX 13 1 14 2 15 3 16 4 17 5 18 6 19 7 23 8 21 9 20 10 22 12
REMARK SMILES IDX 24 14 25 15 26 16 2 18 1 19 3 20 4 21 5 22 12 23 6 24 10 25
REMARK SMILES IDX 7 26 8 27 11 28 9 30
REMARK H PARENT 20 11 22 13 26 17 11 29 9 31
ROOT
ATOM      1  O   UNL     1      -4.801  -0.526 -30.683  1.00  0.00    -0.447 OA
ENDROOT
BRANCH   1   2
ATOM      2  C   UNL     1      -5.658   0.627 -30.599  1.00  0.00     0.290 C 
BRANCH   2   3
ATOM      3  C   UNL     1      -6.205   0.922 -32.006  1.00  0.00     0.093 C 
BRANCH   3   4
ATOM      4  C   UNL     1      -7.656   0.522 -32.171  1.00  0.00    -0.040 A 
ATOM      5  C   UNL     1      -8.053  -0.809 -31.954  1.00  0.00     0.008 A 
ATOM      6  C   UNL     1      -9.392  -1.190 -32.091  1.00  0.00     0.050 A 
ATOM      7  C   UNL     1     -10.336  -0.235 -32.444  1.00  0.00     0.157 A 
ATOM      8  C   UNL     1      -8.622   1.468 -32.544  1.00  0.00     0.054 A 
ATOM      9  C   UNL     1      -9.949   1.083 -32.668  1.00  0.00     0.157 A 
BRANCH   7  10
ATOM     10  O   UNL     1     -11.661  -0.543 -32.586  1.00  0.00    -0.504 OA
ATOM     11  H   UNL     1     -12.030   0.027 -33.283  1.00  0.00     0.293 HD
ENDBRANCH   7  10
BRANCH   9  12
ATOM     12  O   UNL     1     -10.883   2.018 -33.012  1.00  0.00    -0.504 OA
ATOM     13  H   UNL     1     -11.633   1.498 -33.362  1.00  0.00     0.293 HD
ENDBRANCH   9  12
ENDBRANCH   3   4
ENDBRANCH   2   3
BRANCH   2  14
ATOM     14  C   UNL     1      -4.910   1.858 -30.067  1.00  0.00     0.345 C 
ATOM     15  O   UNL     1      -4.822   2.160 -28.886  1.00  0.00    -0.248 OA
BRANCH  14  16
ATOM     16  O   UNL     1      -4.327   2.608 -31.034  1.00  0.00    -0.478 OA
ATOM     17  H   UNL     1      -4.945   2.899 -31.749  1.00  0.00     0.296 HD
ENDBRANCH  14  16
ENDBRANCH   2  14
ENDBRANCH   1   2
BRANCH   1  18
ATOM     18  C   UNL     1      -4.807  -1.324 -29.592  1.00  0.00     0.331 C 
ATOM     19  O   UNL     1      -3.989  -1.275 -28.686  1.00  0.00    -0.247 OA
BRANCH  18  20
ATOM     20  C   UNL     1      -5.915  -2.286 -29.710  1.00  0.00     0.094 C 
ATOM     21  C   UNL     1      -6.910  -2.271 -28.811  1.00  0.00     0.016 C 
BRANCH  21  22
ATOM     22  C   UNL     1      -8.039  -3.208 -28.842  1.00  0.00    -0.021 A 
ATOM     23  C   UNL     1      -9.052  -3.174 -27.870  1.00  0.00     0.058 A 
ATOM     24  C   UNL     1      -8.139  -4.116 -29.909  1.00  0.00     0.012 A 
ATOM     25  C   UNL     1     -10.126  -4.054 -27.966  1.00  0.00     0.157 A 
ATOM     26  C   UNL     1      -9.219  -4.998 -29.995  1.00  0.00     0.051 A 
ATOM     27  C   UNL     1     -10.204  -4.959 -29.020  1.00  0.00     0.157 A 
BRANCH  25  28
ATOM     28  O   UNL     1     -11.140  -4.061 -27.049  1.00  0.00    -0.504 OA
ATOM     29  H   UNL     1     -11.985  -4.119 -27.526  1.00  0.00     0.293 HD
ENDBRANCH  25  28
BRANCH  27  30
ATOM     30  O   UNL     1     -11.263  -5.816 -29.108  1.00  0.00    -0.504 OA
ATOM     31  H   UNL     1     -11.877  -5.383 -29.735  1.00  0.00     0.293 HD
ENDBRANCH  27  30
ENDBRANCH  21  22
ENDBRANCH  18  20
ENDBRANCH   1  18
TORSDOF 12
ENDMDL
MODEL 10
REMARK VINA RESULT:      -7.3      1.771      2.470
REMARK SMILES O=C(/C=C/c1ccc(O)c(O)c1)O[C@H](Cc1ccc(O)c(O)c1)C(=O)O
REMARK SMILES IDX 13 1 14 2 15 3 16 4 17 5 18 6 19 7 23 8 21 9 20 10 22 12
REMARK SMILES IDX 24 14 25 15 26 16 2 18 1 19 3 20 4 21 5 22 12 23 6 24 10 25
REMARK SMILES IDX 7 26 8 27 11 28 9 30
REMARK H PARENT 20 11 22 13 26 17 11 29 9 31
ROOT
ATOM      1  O   UNL     1      -8.241   0.169 -32.983  1.00  0.00    -0.447 OA
ENDROOT
BRANCH   1   2
ATOM      2  C   UNL     1      -9.328  -0.041 -32.066  1.00  0.00     0.290 C 
BRANCH   2   3
ATOM      3  C   UNL     1      -9.339  -1.526 -31.664  1.00  0.00     0.093 C 
BRANCH   3   4
ATOM      4  C   UNL     1      -9.295  -1.732 -30.164  1.00  0.00    -0.040 A 
ATOM      5  C   UNL     1      -9.292  -0.626 -29.297  1.00  0.00     0.008 A 
ATOM      6  C   UNL     1      -9.265  -0.802 -27.909  1.00  0.00     0.050 A 
ATOM      7  C   UNL     1      -9.243  -2.089 -27.390  1.00  0.00     0.157 A 
ATOM      8  C   UNL     1      -9.256  -3.024 -29.620  1.00  0.00     0.054 A 
ATOM      9  C   UNL     1      -9.239  -3.190 -28.243  1.00  0.00     0.157 A 
BRANCH   7  10
ATOM     10  O   UNL     1      -9.225  -2.328 -26.044  1.00  0.00    -0.504 OA
ATOM     11  H   UNL     1      -8.801  -3.192 -25.896  1.00  0.00     0.293 HD
ENDBRANCH   7  10
BRANCH   9  12
ATOM     12  O   UNL     1      -9.221  -4.453 -27.725  1.00  0.00    -0.504 OA
ATOM     13  H   UNL     1      -8.852  -4.344 -26.827  1.00  0.00     0.293 HD
ENDBRANCH   9  12
ENDBRANCH   3   4
ENDBRANCH   2   3
BRANCH   2  14
ATOM     14  C   UNL     1     -10.682   0.334 -32.687  1.00  0.00     0.345 C 
ATOM     15  O   UNL     1     -11.560  -0.468 -32.973  1.00  0.00    -0.248 OA
BRANCH  14  16
ATOM     16  O   UNL     1     -10.844   1.663 -32.893  1.00  0.00    -0.478 OA
ATOM     17  H   UNL     1     -10.003   2.151 -33.070  1.00  0.00     0.296 HD
ENDBRANCH  14  16
ENDBRANCH   2  14
ENDBRANCH   1   2
BRANCH   1  18
ATOM     18  C   UNL     1      -7.568   1.330 -32.818  1.00  0.00     0.331 C 
ATOM     19  O   UNL     1      -7.897   2.403 -33.301  1.00  0.00    -0.247 OA
BRANCH  18  20
ATOM     20  C   UNL     1      -6.360   1.072 -32.018  1.00  0.00     0.094 C 
ATOM     21  C   UNL     1      -6.225   1.639 -30.810  1.00  0.00     0.016 C 
BRANCH  21  22
ATOM     22  C   UNL     1      -5.044   1.453 -29.959  1.00  0.00    -0.021 A 
ATOM     23  C   UNL     1      -4.502   0.179 -29.719  1.00  0.00     0.058 A 
ATOM     24  C   UNL     1      -4.405   2.584 -29.426  1.00  0.00     0.012 A 
ATOM     25  C   UNL     1      -3.355   0.056 -28.941  1.00  0.00     0.157 A 
ATOM     26  C   UNL     1      -3.256   2.450 -28.642  1.00  0.00     0.051 A 
ATOM     27  C   UNL     1      -2.742   1.185 -28.406  1.00  0.00     0.157 A 
BRANCH  25  28
ATOM     28  O   UNL     1      -2.785  -1.159 -28.680  1.00  0.00    -0.504 OA
ATOM     29  H   UNL     1      -2.684  -1.638 -29.520  1.00  0.00     0.293 HD
ENDBRANCH  25  28
BRANCH  27  30
ATOM     30  O   UNL     1      -1.615   1.055 -27.646  1.00  0.00    -0.504 OA
ATOM     31  H   UNL     1      -1.564   0.098 -27.446  1.00  0.00     0.293 HD
ENDBRANCH  27  30
ENDBRANCH  21  22
ENDBRANCH  18  20
ENDBRANCH   1  18
TORSDOF 12
ENDMDL
