MODEL 1
REMARK VINA RESULT:      -6.7      0.000      0.000
REMARK SMILES O=C(O)c1ccc(O)cc1O
REMARK SMILES IDX 6 1 5 2 4 3 10 4 9 5 7 6 8 7 2 9 1 10 3 11 11 13
REMARK H PARENT 8 8 3 12 11 14
ROOT
ATOM      1  C   UNL     1      -1.460  -8.736 -26.847  1.00  0.00     0.047 A 
ATOM      2  C   UNL     1      -0.539  -9.440 -26.068  1.00  0.00     0.023 A 
ATOM      3  C   UNL     1      -0.284 -10.792 -26.342  1.00  0.00     0.101 A 
ATOM      4  C   UNL     1      -0.997 -11.434 -27.366  1.00  0.00     0.133 A 
ATOM      5  C   UNL     1      -1.911 -10.729 -28.147  1.00  0.00     0.093 A 
ATOM      6  C   UNL     1      -2.130  -9.382 -27.881  1.00  0.00     0.119 A 
ENDROOT
BRANCH   6   7
ATOM      7  O   UNL     1      -3.017  -8.649 -28.613  1.00  0.00    -0.508 OA
ATOM      8  H   UNL     1      -3.912  -8.806 -28.266  1.00  0.00     0.293 HD
ENDBRANCH   6   7
BRANCH   3   9
ATOM      9  C   UNL     1       0.698 -11.569 -25.552  1.00  0.00     0.339 C 
ATOM     10  O   UNL     1       1.004 -12.711 -25.861  1.00  0.00    -0.246 OA
BRANCH   9  11
ATOM     11  O   UNL     1       1.271 -10.895 -24.536  1.00  0.00    -0.478 OA
ATOM     12  H   UNL     1       0.657 -10.382 -23.979  1.00  0.00     0.297 HD
ENDBRANCH   9  11
ENDBRANCH   3   9
BRANCH   4  13
ATOM     13  O   UNL     1      -0.849 -12.765 -27.660  1.00  0.00    -0.507 OA
ATOM     14  H   UNL     1      -0.167 -12.859 -28.363  1.00  0.00     0.293 HD
ENDBRANCH   4  13
TORSDOF 4
ENDMDL
MODEL 2
REMARK VINA RESULT:      -6.1     13.825     15.580
REMARK SMILES O=C(O)c1ccc(O)cc1O
REMARK SMILES IDX 6 1 5 2 4 3 10 4 9 5 7 6 8 7 2 9 1 10 3 11 11 13
REMARK H PARENT 8 8 3 12 11 14
ROOT
ATOM      1  C   UNL     1       8.547   0.350 -17.757  1.00  0.00     0.047 A 
ATOM      2  C   UNL     1       8.087  -0.422 -18.827  1.00  0.00     0.023 A 
ATOM      3  C   UNL     1       7.053  -1.348 -18.624  1.00  0.00     0.101 A 
ATOM      4  C   UNL     1       6.527  -1.523 -17.336  1.00  0.00     0.133 A 
ATOM      5  C   UNL     1       6.981  -0.747 -16.270  1.00  0.00     0.093 A 
ATOM      6  C   UNL     1       7.986   0.187 -16.494  1.00  0.00     0.119 A 
ENDROOT
BRANCH   6   7
ATOM      7  O   UNL     1       8.468   0.967 -15.485  1.00  0.00    -0.508 OA
ATOM      8  H   UNL     1       7.843   0.936 -14.740  1.00  0.00     0.293 HD
ENDBRANCH   6   7
BRANCH   3   9
ATOM      9  C   UNL     1       6.525  -2.172 -19.735  1.00  0.00     0.339 C 
ATOM     10  O   UNL     1       6.053  -1.661 -20.739  1.00  0.00    -0.246 OA
BRANCH   9  11
ATOM     11  O   UNL     1       6.681  -3.502 -19.580  1.00  0.00    -0.478 OA
ATOM     12  H   UNL     1       6.329  -3.868 -18.748  1.00  0.00     0.297 HD
ENDBRANCH   9  11
ENDBRANCH   3   9
BRANCH   4  13
ATOM     13  O   UNL     1       5.556  -2.445 -17.042  1.00  0.00    -0.507 OA
ATOM     14  H   UNL     1       5.162  -2.221 -16.168  1.00  0.00     0.293 HD
ENDBRANCH   4  13
TORSDOF 4
ENDMDL
MODEL 3
REMARK VINA RESULT:      -6.1      1.906      2.348
REMARK SMILES O=C(O)c1ccc(O)cc1O
REMARK SMILES IDX 6 1 5 2 4 3 10 4 9 5 7 6 8 7 2 9 1 10 3 11 11 13
REMARK H PARENT 8 8 3 12 11 14
ROOT
ATOM      1  C   UNL     1      -3.494  -8.524 -26.986  1.00  0.00     0.047 A 
ATOM      2  C   UNL     1      -2.122  -8.346 -26.791  1.00  0.00     0.023 A 
ATOM      3  C   UNL     1      -1.226  -9.357 -27.170  1.00  0.00     0.101 A 
ATOM      4  C   UNL     1      -1.725 -10.558 -27.695  1.00  0.00     0.133 A 
ATOM      5  C   UNL     1      -3.094 -10.733 -27.896  1.00  0.00     0.093 A 
ATOM      6  C   UNL     1      -3.966  -9.709 -27.543  1.00  0.00     0.119 A 
ENDROOT
BRANCH   6   7
ATOM      7  O   UNL     1      -5.312  -9.833 -27.715  1.00  0.00    -0.508 OA
ATOM      8  H   UNL     1      -5.711  -8.945 -27.702  1.00  0.00     0.293 HD
ENDBRANCH   6   7
BRANCH   3   9
ATOM      9  C   UNL     1       0.235  -9.200 -26.996  1.00  0.00     0.339 C 
ATOM     10  O   UNL     1       0.884  -9.979 -26.315  1.00  0.00    -0.246 OA
BRANCH   9  11
ATOM     11  O   UNL     1       0.787  -8.194 -27.704  1.00  0.00    -0.478 OA
ATOM     12  H   UNL     1       0.681  -8.259 -28.671  1.00  0.00     0.297 HD
ENDBRANCH   9  11
ENDBRANCH   3   9
BRANCH   4  13
ATOM     13  O   UNL     1      -0.923 -11.616 -28.037  1.00  0.00    -0.507 OA
ATOM     14  H   UNL     1      -0.033 -11.273 -28.278  1.00  0.00     0.293 HD
ENDBRANCH   4  13
TORSDOF 4
ENDMDL
MODEL 4
REMARK VINA RESULT:      -5.8     12.656     14.933
REMARK SMILES O=C(O)c1ccc(O)cc1O
REMARK SMILES IDX 6 1 5 2 4 3 10 4 9 5 7 6 8 7 2 9 1 10 3 11 11 13
REMARK H PARENT 8 8 3 12 11 14
ROOT
ATOM      1  C   UNL     1      -6.827   1.001 -32.428  1.00  0.00     0.047 A 
ATOM      2  C   UNL     1      -8.121   1.283 -32.872  1.00  0.00     0.023 A 
ATOM      3  C   UNL     1      -9.180   0.431 -32.523  1.00  0.00     0.101 A 
ATOM      4  C   UNL     1      -8.915  -0.725 -31.773  1.00  0.00     0.133 A 
ATOM      5  C   UNL     1      -7.625  -1.002 -31.324  1.00  0.00     0.093 A 
ATOM      6  C   UNL     1      -6.592  -0.132 -31.654  1.00  0.00     0.119 A 
ENDROOT
BRANCH   6   7
ATOM      7  O   UNL     1      -5.312  -0.360 -31.243  1.00  0.00    -0.508 OA
ATOM      8  H   UNL     1      -5.319  -1.075 -30.583  1.00  0.00     0.293 HD
ENDBRANCH   6   7
BRANCH   3   9
ATOM      9  C   UNL     1     -10.568   0.704 -32.958  1.00  0.00     0.339 C 
ATOM     10  O   UNL     1     -11.358  -0.202 -33.176  1.00  0.00    -0.246 OA
BRANCH   9  11
ATOM     11  O   UNL     1     -10.900   2.009 -33.013  1.00  0.00    -0.478 OA
ATOM     12  H   UNL     1     -11.851   2.200 -32.920  1.00  0.00     0.297 HD
ENDBRANCH   9  11
ENDBRANCH   3   9
BRANCH   4  13
ATOM     13  O   UNL     1      -9.881  -1.638 -31.439  1.00  0.00    -0.507 OA
ATOM     14  H   UNL     1      -9.471  -2.344 -30.889  1.00  0.00     0.293 HD
ENDBRANCH   4  13
TORSDOF 4
ENDMDL
MODEL 5
REMARK VINA RESULT:      -5.6     13.921     15.588
REMARK SMILES O=C(O)c1ccc(O)cc1O
REMARK SMILES IDX 6 1 5 2 4 3 10 4 9 5 7 6 8 7 2 9 1 10 3 11 11 13
REMARK H PARENT 8 8 3 12 11 14
ROOT
ATOM      1  C   UNL     1       7.411  -1.549 -19.666  1.00  0.00     0.047 A 
ATOM      2  C   UNL     1       7.825  -0.552 -18.780  1.00  0.00     0.023 A 
ATOM      3  C   UNL     1       7.345  -0.547 -17.461  1.00  0.00     0.101 A 
ATOM      4  C   UNL     1       6.413  -1.518 -17.064  1.00  0.00     0.133 A 
ATOM      5  C   UNL     1       6.005  -2.517 -17.947  1.00  0.00     0.093 A 
ATOM      6  C   UNL     1       6.513  -2.525 -19.242  1.00  0.00     0.119 A 
ENDROOT
BRANCH   6   7
ATOM      7  O   UNL     1       6.143  -3.477 -20.144  1.00  0.00    -0.508 OA
ATOM      8  H   UNL     1       5.699  -4.201 -19.670  1.00  0.00     0.293 HD
ENDBRANCH   6   7
BRANCH   3   9
ATOM      9  C   UNL     1       7.773   0.480 -16.486  1.00  0.00     0.339 C 
ATOM     10  O   UNL     1       8.490   0.199 -15.538  1.00  0.00    -0.246 OA
BRANCH   9  11
ATOM     11  O   UNL     1       7.380   1.737 -16.774  1.00  0.00    -0.478 OA
ATOM     12  H   UNL     1       7.213   2.308 -16.002  1.00  0.00     0.297 HD
ENDBRANCH   9  11
ENDBRANCH   3   9
BRANCH   4  13
ATOM     13  O   UNL     1       5.852  -1.550 -15.814  1.00  0.00    -0.507 OA
ATOM     14  H   UNL     1       5.704  -0.626 -15.511  1.00  0.00     0.293 HD
ENDBRANCH   4  13
TORSDOF 4
ENDMDL
MODEL 6
REMARK VINA RESULT:      -5.5     12.182     14.939
REMARK SMILES O=C(O)c1ccc(O)cc1O
REMARK SMILES IDX 6 1 5 2 4 3 10 4 9 5 7 6 8 7 2 9 1 10 3 11 11 13
REMARK H PARENT 8 8 3 12 11 14
ROOT
ATOM      1  C   UNL     1      -7.938  -1.526 -31.112  1.00  0.00     0.047 A 
ATOM      2  C   UNL     1      -9.119  -1.114 -31.734  1.00  0.00     0.023 A 
ATOM      3  C   UNL     1      -9.144   0.089 -32.456  1.00  0.00     0.101 A 
ATOM      4  C   UNL     1      -7.993   0.889 -32.501  1.00  0.00     0.133 A 
ATOM      5  C   UNL     1      -6.813   0.474 -31.886  1.00  0.00     0.093 A 
ATOM      6  C   UNL     1      -6.796  -0.735 -31.200  1.00  0.00     0.119 A 
ENDROOT
BRANCH   6   7
ATOM      7  O   UNL     1      -5.669  -1.183 -30.578  1.00  0.00    -0.508 OA
ATOM      8  H   UNL     1      -4.997  -0.480 -30.605  1.00  0.00     0.293 HD
ENDBRANCH   6   7
BRANCH   3   9
ATOM      9  C   UNL     1     -10.370   0.552 -33.144  1.00  0.00     0.339 C 
ATOM     10  O   UNL     1     -10.952  -0.155 -33.953  1.00  0.00    -0.246 OA
BRANCH   9  11
ATOM     11  O   UNL     1     -10.823   1.758 -32.750  1.00  0.00    -0.478 OA
ATOM     12  H   UNL     1     -11.789   1.823 -32.636  1.00  0.00     0.297 HD
ENDBRANCH   9  11
ENDBRANCH   3   9
BRANCH   4  13
ATOM     13  O   UNL     1      -7.950   2.104 -33.134  1.00  0.00    -0.507 OA
ATOM     14  H   UNL     1      -8.197   1.976 -34.078  1.00  0.00     0.293 HD
ENDBRANCH   4  13
TORSDOF 4
ENDMDL
MODEL 7
REMARK VINA RESULT:      -5.5      1.057      3.928
REMARK SMILES O=C(O)c1ccc(O)cc1O
REMARK SMILES IDX 6 1 5 2 4 3 10 4 9 5 7 6 8 7 2 9 1 10 3 11 11 13
REMARK H PARENT 8 8 3 12 11 14
ROOT
ATOM      1  C   UNL     1      -0.200  -9.269 -25.479  1.00  0.00     0.047 A 
ATOM      2  C   UNL     1      -1.337  -9.022 -26.253  1.00  0.00     0.023 A 
ATOM      3  C   UNL     1      -1.772  -9.982 -27.179  1.00  0.00     0.101 A 
ATOM      4  C   UNL     1      -1.029 -11.160 -27.351  1.00  0.00     0.133 A 
ATOM      5  C   UNL     1       0.101 -11.409 -26.573  1.00  0.00     0.093 A 
ATOM      6  C   UNL     1       0.502 -10.460 -25.639  1.00  0.00     0.119 A 
ENDROOT
BRANCH   6   7
ATOM      7  O   UNL     1       1.602 -10.654 -24.857  1.00  0.00    -0.508 OA
ATOM      8  H   UNL     1       1.599  -9.990 -24.145  1.00  0.00     0.293 HD
ENDBRANCH   6   7
BRANCH   3   9
ATOM      9  C   UNL     1      -2.981  -9.767 -28.005  1.00  0.00     0.339 C 
ATOM     10  O   UNL     1      -3.029  -8.881 -28.844  1.00  0.00    -0.246 OA
BRANCH   9  11
ATOM     11  O   UNL     1      -3.969 -10.663 -27.812  1.00  0.00    -0.478 OA
ATOM     12  H   UNL     1      -4.797 -10.298 -27.451  1.00  0.00     0.297 HD
ENDBRANCH   9  11
ENDBRANCH   3   9
BRANCH   4  13
ATOM     13  O   UNL     1      -1.352 -12.121 -28.273  1.00  0.00    -0.507 OA
ATOM     14  H   UNL     1      -2.261 -11.944 -28.608  1.00  0.00     0.293 HD
ENDBRANCH   4  13
TORSDOF 4
ENDMDL
MODEL 8
REMARK VINA RESULT:      -5.4     10.853     11.566
REMARK SMILES O=C(O)c1ccc(O)cc1O
REMARK SMILES IDX 6 1 5 2 4 3 10 4 9 5 7 6 8 7 2 9 1 10 3 11 11 13
REMARK H PARENT 8 8 3 12 11 14
ROOT
ATOM      1  C   UNL     1      -3.495   0.204 -27.540  1.00  0.00     0.047 A 
ATOM      2  C   UNL     1      -4.592  -0.416 -28.144  1.00  0.00     0.023 A 
ATOM      3  C   UNL     1      -4.535  -0.768 -29.501  1.00  0.00     0.101 A 
ATOM      4  C   UNL     1      -3.391  -0.447 -30.248  1.00  0.00     0.133 A 
ATOM      5  C   UNL     1      -2.294   0.165 -29.643  1.00  0.00     0.093 A 
ATOM      6  C   UNL     1      -2.356   0.481 -28.291  1.00  0.00     0.119 A 
ENDROOT
BRANCH   6   7
ATOM      7  O   UNL     1      -1.313   1.084 -27.654  1.00  0.00    -0.508 OA
ATOM      8  H   UNL     1      -1.617   1.935 -27.293  1.00  0.00     0.293 HD
ENDBRANCH   6   7
BRANCH   3   9
ATOM      9  C   UNL     1      -5.668  -1.442 -30.173  1.00  0.00     0.339 C 
ATOM     10  O   UNL     1      -6.146  -2.476 -29.732  1.00  0.00    -0.246 OA
BRANCH   9  11
ATOM     11  O   UNL     1      -6.166  -0.788 -31.241  1.00  0.00    -0.478 OA
ATOM     12  H   UNL     1      -6.215   0.181 -31.150  1.00  0.00     0.297 HD
ENDBRANCH   9  11
ENDBRANCH   3   9
BRANCH   4  13
ATOM     13  O   UNL     1      -3.277  -0.704 -31.589  1.00  0.00    -0.507 OA
ATOM     14  H   UNL     1      -3.531   0.105 -32.088  1.00  0.00     0.293 HD
ENDBRANCH   4  13
TORSDOF 4
ENDMDL
MODEL 9
REMARK VINA RESULT:      -5.4     10.326     11.392
REMARK SMILES O=C(O)c1ccc(O)cc1O
REMARK SMILES IDX 6 1 5 2 4 3 10 4 9 5 7 6 8 7 2 9 1 10 3 11 11 13
REMARK H PARENT 8 8 3 12 11 14
ROOT
ATOM      1  C   UNL     1      -4.942  -2.143 -27.872  1.00  0.00     0.047 A 
ATOM      2  C   UNL     1      -3.704  -1.647 -28.287  1.00  0.00     0.023 A 
ATOM      3  C   UNL     1      -3.447  -0.269 -28.221  1.00  0.00     0.101 A 
ATOM      4  C   UNL     1      -4.458   0.600 -27.783  1.00  0.00     0.133 A 
ATOM      5  C   UNL     1      -5.691   0.103 -27.362  1.00  0.00     0.093 A 
ATOM      6  C   UNL     1      -5.919  -1.268 -27.406  1.00  0.00     0.119 A 
ENDROOT
BRANCH   6   7
ATOM      7  O   UNL     1      -7.109  -1.803 -27.010  1.00  0.00    -0.508 OA
ATOM      8  H   UNL     1      -6.936  -2.647 -26.558  1.00  0.00     0.293 HD
ENDBRANCH   6   7
BRANCH   3   9
ATOM      9  C   UNL     1      -2.143   0.295 -28.634  1.00  0.00     0.339 C 
ATOM     10  O   UNL     1      -1.727   0.168 -29.775  1.00  0.00    -0.246 OA
BRANCH   9  11
ATOM     11  O   UNL     1      -1.507   1.012 -27.686  1.00  0.00    -0.478 OA
ATOM     12  H   UNL     1      -1.877   0.934 -26.788  1.00  0.00     0.297 HD
ENDBRANCH   9  11
ENDBRANCH   3   9
BRANCH   4  13
ATOM     13  O   UNL     1      -4.309   1.962 -27.742  1.00  0.00    -0.507 OA
ATOM     14  H   UNL     1      -4.865   2.318 -27.012  1.00  0.00     0.293 HD
ENDBRANCH   4  13
TORSDOF 4
ENDMDL
MODEL 10
REMARK VINA RESULT:      -5.4     10.073     10.956
REMARK SMILES O=C(O)c1ccc(O)cc1O
REMARK SMILES IDX 6 1 5 2 4 3 10 4 9 5 7 6 8 7 2 9 1 10 3 11 11 13
REMARK H PARENT 8 8 3 12 11 14
ROOT
ATOM      1  C   UNL     1      -2.269   0.877 -28.091  1.00  0.00     0.047 A 
ATOM      2  C   UNL     1      -3.149   0.685 -27.023  1.00  0.00     0.023 A 
ATOM      3  C   UNL     1      -4.036  -0.402 -27.038  1.00  0.00     0.101 A 
ATOM      4  C   UNL     1      -4.061  -1.256 -28.150  1.00  0.00     0.133 A 
ATOM      5  C   UNL     1      -3.178  -1.068 -29.212  1.00  0.00     0.093 A 
ATOM      6  C   UNL     1      -2.285  -0.002 -29.170  1.00  0.00     0.119 A 
ENDROOT
BRANCH   6   7
ATOM      7  O   UNL     1      -1.405   0.227 -30.184  1.00  0.00    -0.508 OA
ATOM      8  H   UNL     1      -1.595  -0.394 -30.909  1.00  0.00     0.293 HD
ENDBRANCH   6   7
BRANCH   3   9
ATOM      9  C   UNL     1      -4.971  -0.651 -25.918  1.00  0.00     0.339 C 
ATOM     10  O   UNL     1      -5.364  -1.778 -25.654  1.00  0.00    -0.246 OA
BRANCH   9  11
ATOM     11  O   UNL     1      -5.280   0.435 -25.182  1.00  0.00    -0.478 OA
ATOM     12  H   UNL     1      -5.504   1.234 -25.694  1.00  0.00     0.297 HD
ENDBRANCH   9  11
ENDBRANCH   3   9
BRANCH   4  13
ATOM     13  O   UNL     1      -4.934  -2.306 -28.269  1.00  0.00    -0.507 OA
ATOM     14  H   UNL     1      -5.494  -2.343 -27.460  1.00  0.00     0.293 HD
ENDBRANCH   4  13
TORSDOF 4
ENDMDL
