MODEL 1
REMARK VINA RESULT:      -6.7      0.000      0.000
REMARK SMILES O=C(O)c1ccc(O)cc1O
REMARK SMILES IDX 6 1 5 2 4 3 10 4 9 5 7 6 8 7 2 9 1 10 3 11 11 13
REMARK H PARENT 8 8 3 12 11 14
ROOT
ATOM      1  C   UNL     1      -1.468  -8.733 -26.846  1.00  0.00     0.047 A 
ATOM      2  C   UNL     1      -0.546  -9.436 -26.066  1.00  0.00     0.023 A 
ATOM      3  C   UNL     1      -0.288 -10.788 -26.340  1.00  0.00     0.101 A 
ATOM      4  C   UNL     1      -0.998 -11.430 -27.366  1.00  0.00     0.133 A 
ATOM      5  C   UNL     1      -1.913 -10.727 -28.148  1.00  0.00     0.093 A 
ATOM      6  C   UNL     1      -2.135  -9.380 -27.882  1.00  0.00     0.119 A 
ENDROOT
BRANCH   6   7
ATOM      7  O   UNL     1      -3.022  -8.649 -28.614  1.00  0.00    -0.508 OA
ATOM      8  H   UNL     1      -3.169  -9.097 -29.465  1.00  0.00     0.293 HD
ENDBRANCH   6   7
BRANCH   3   9
ATOM      9  C   UNL     1       0.694 -11.563 -25.550  1.00  0.00     0.339 C 
ATOM     10  O   UNL     1       0.993 -12.709 -25.851  1.00  0.00    -0.246 OA
BRANCH   9  11
ATOM     11  O   UNL     1       1.277 -10.883 -24.543  1.00  0.00    -0.478 OA
ATOM     12  H   UNL     1       0.677 -10.323 -24.017  1.00  0.00     0.297 HD
ENDBRANCH   9  11
ENDBRANCH   3   9
BRANCH   4  13
ATOM     13  O   UNL     1      -0.847 -12.761 -27.660  1.00  0.00    -0.507 OA
ATOM     14  H   UNL     1      -1.565 -13.030 -28.277  1.00  0.00     0.293 HD
ENDBRANCH   4  13
TORSDOF 4
ENDMDL
MODEL 2
REMARK VINA RESULT:      -6.1     13.822     15.580
REMARK SMILES O=C(O)c1ccc(O)cc1O
REMARK SMILES IDX 6 1 5 2 4 3 10 4 9 5 7 6 8 7 2 9 1 10 3 11 11 13
REMARK H PARENT 8 8 3 12 11 14
ROOT
ATOM      1  C   UNL     1       8.547   0.350 -17.757  1.00  0.00     0.047 A 
ATOM      2  C   UNL     1       8.087  -0.422 -18.827  1.00  0.00     0.023 A 
ATOM      3  C   UNL     1       7.053  -1.348 -18.624  1.00  0.00     0.101 A 
ATOM      4  C   UNL     1       6.526  -1.523 -17.336  1.00  0.00     0.133 A 
ATOM      5  C   UNL     1       6.981  -0.747 -16.270  1.00  0.00     0.093 A 
ATOM      6  C   UNL     1       7.986   0.187 -16.494  1.00  0.00     0.119 A 
ENDROOT
BRANCH   6   7
ATOM      7  O   UNL     1       8.468   0.967 -15.484  1.00  0.00    -0.508 OA
ATOM      8  H   UNL     1       7.805   1.647 -15.272  1.00  0.00     0.293 HD
ENDBRANCH   6   7
BRANCH   3   9
ATOM      9  C   UNL     1       6.525  -2.172 -19.735  1.00  0.00     0.339 C 
ATOM     10  O   UNL     1       6.053  -1.661 -20.739  1.00  0.00    -0.246 OA
BRANCH   9  11
ATOM     11  O   UNL     1       6.682  -3.502 -19.581  1.00  0.00    -0.478 OA
ATOM     12  H   UNL     1       6.383  -3.859 -18.724  1.00  0.00     0.297 HD
ENDBRANCH   9  11
ENDBRANCH   3   9
BRANCH   4  13
ATOM     13  O   UNL     1       5.556  -2.445 -17.042  1.00  0.00    -0.507 OA
ATOM     14  H   UNL     1       4.690  -1.982 -16.976  1.00  0.00     0.293 HD
ENDBRANCH   4  13
TORSDOF 4
ENDMDL
MODEL 3
REMARK VINA RESULT:      -6.1      1.903      2.334
REMARK SMILES O=C(O)c1ccc(O)cc1O
REMARK SMILES IDX 6 1 5 2 4 3 10 4 9 5 7 6 8 7 2 9 1 10 3 11 11 13
REMARK H PARENT 8 8 3 12 11 14
ROOT
ATOM      1  C   UNL     1      -3.491  -8.529 -26.986  1.00  0.00     0.047 A 
ATOM      2  C   UNL     1      -2.119  -8.353 -26.788  1.00  0.00     0.023 A 
ATOM      3  C   UNL     1      -1.224  -9.366 -27.167  1.00  0.00     0.101 A 
ATOM      4  C   UNL     1      -1.725 -10.565 -27.697  1.00  0.00     0.133 A 
ATOM      5  C   UNL     1      -3.093 -10.736 -27.901  1.00  0.00     0.093 A 
ATOM      6  C   UNL     1      -3.964  -9.712 -27.547  1.00  0.00     0.119 A 
ENDROOT
BRANCH   6   7
ATOM      7  O   UNL     1      -5.310  -9.832 -27.722  1.00  0.00    -0.508 OA
ATOM      8  H   UNL     1      -5.488 -10.013 -28.661  1.00  0.00     0.293 HD
ENDBRANCH   6   7
BRANCH   3   9
ATOM      9  C   UNL     1       0.237  -9.212 -26.990  1.00  0.00     0.339 C 
ATOM     10  O   UNL     1       0.883  -9.995 -26.310  1.00  0.00    -0.246 OA
BRANCH   9  11
ATOM     11  O   UNL     1       0.792  -8.205 -27.694  1.00  0.00    -0.478 OA
ATOM     12  H   UNL     1       0.506  -7.310 -27.435  1.00  0.00     0.297 HD
ENDBRANCH   9  11
ENDBRANCH   3   9
BRANCH   4  13
ATOM     13  O   UNL     1      -0.925 -11.624 -28.039  1.00  0.00    -0.507 OA
ATOM     14  H   UNL     1      -0.203 -11.701 -27.374  1.00  0.00     0.293 HD
ENDBRANCH   4  13
TORSDOF 4
ENDMDL
MODEL 4
REMARK VINA RESULT:      -6.1      1.399      4.417
REMARK SMILES O=C(O)c1ccc(O)cc1O
REMARK SMILES IDX 6 1 5 2 4 3 10 4 9 5 7 6 8 7 2 9 1 10 3 11 11 13
REMARK H PARENT 8 8 3 12 11 14
ROOT
ATOM      1  C   UNL     1      -0.553 -12.104 -27.318  1.00  0.00     0.047 A 
ATOM      2  C   UNL     1      -1.619 -11.327 -27.778  1.00  0.00     0.023 A 
ATOM      3  C   UNL     1      -1.830 -10.047 -27.245  1.00  0.00     0.101 A 
ATOM      4  C   UNL     1      -0.995  -9.582 -26.218  1.00  0.00     0.133 A 
ATOM      5  C   UNL     1       0.073 -10.355 -25.764  1.00  0.00     0.093 A 
ATOM      6  C   UNL     1       0.286 -11.610 -26.323  1.00  0.00     0.119 A 
ENDROOT
BRANCH   6   7
ATOM      7  O   UNL     1       1.313 -12.406 -25.911  1.00  0.00    -0.508 OA
ATOM      8  H   UNL     1       2.146 -11.912 -26.001  1.00  0.00     0.293 HD
ENDBRANCH   6   7
BRANCH   3   9
ATOM      9  C   UNL     1      -2.936  -9.185 -27.718  1.00  0.00     0.339 C 
ATOM     10  O   UNL     1      -3.032  -8.859 -28.891  1.00  0.00    -0.246 OA
BRANCH   9  11
ATOM     11  O   UNL     1      -3.850  -8.867 -26.781  1.00  0.00    -0.478 OA
ATOM     12  H   UNL     1      -3.490  -8.471 -25.965  1.00  0.00     0.297 HD
ENDBRANCH   9  11
ENDBRANCH   3   9
BRANCH   4  13
ATOM     13  O   UNL     1      -1.167  -8.369 -25.604  1.00  0.00    -0.507 OA
ATOM     14  H   UNL     1      -0.286  -7.949 -25.482  1.00  0.00     0.293 HD
ENDBRANCH   4  13
TORSDOF 4
ENDMDL
MODEL 5
REMARK VINA RESULT:      -5.7     12.659     14.927
REMARK SMILES O=C(O)c1ccc(O)cc1O
REMARK SMILES IDX 6 1 5 2 4 3 10 4 9 5 7 6 8 7 2 9 1 10 3 11 11 13
REMARK H PARENT 8 8 3 12 11 14
ROOT
ATOM      1  C   UNL     1      -6.816   1.033 -32.374  1.00  0.00     0.047 A 
ATOM      2  C   UNL     1      -8.098   1.299 -32.860  1.00  0.00     0.023 A 
ATOM      3  C   UNL     1      -9.156   0.432 -32.548  1.00  0.00     0.101 A 
ATOM      4  C   UNL     1      -8.901  -0.720 -31.790  1.00  0.00     0.133 A 
ATOM      5  C   UNL     1      -7.623  -0.981 -31.299  1.00  0.00     0.093 A 
ATOM      6  C   UNL     1      -6.591  -0.097 -31.593  1.00  0.00     0.119 A 
ENDROOT
BRANCH   6   7
ATOM      7  O   UNL     1      -5.323  -0.309 -31.141  1.00  0.00    -0.508 OA
ATOM      8  H   UNL     1      -4.805  -0.729 -31.850  1.00  0.00     0.293 HD
ENDBRANCH   6   7
BRANCH   3   9
ATOM      9  C   UNL     1     -10.532   0.688 -33.028  1.00  0.00     0.339 C 
ATOM     10  O   UNL     1     -11.280  -0.228 -33.337  1.00  0.00    -0.246 OA
BRANCH   9  11
ATOM     11  O   UNL     1     -10.908   1.982 -33.017  1.00  0.00    -0.478 OA
ATOM     12  H   UNL     1     -11.835   2.149 -33.267  1.00  0.00     0.297 HD
ENDBRANCH   9  11
ENDBRANCH   3   9
BRANCH   4  13
ATOM     13  O   UNL     1      -9.865  -1.647 -31.489  1.00  0.00    -0.507 OA
ATOM     14  H   UNL     1     -10.183  -1.485 -30.571  1.00  0.00     0.293 HD
ENDBRANCH   4  13
TORSDOF 4
ENDMDL
MODEL 6
REMARK VINA RESULT:      -5.6     13.899     15.567
REMARK SMILES O=C(O)c1ccc(O)cc1O
REMARK SMILES IDX 6 1 5 2 4 3 10 4 9 5 7 6 8 7 2 9 1 10 3 11 11 13
REMARK H PARENT 8 8 3 12 11 14
ROOT
ATOM      1  C   UNL     1       7.426  -1.562 -19.682  1.00  0.00     0.047 A 
ATOM      2  C   UNL     1       7.835  -0.567 -18.790  1.00  0.00     0.023 A 
ATOM      3  C   UNL     1       7.343  -0.564 -17.476  1.00  0.00     0.101 A 
ATOM      4  C   UNL     1       6.407  -1.533 -17.088  1.00  0.00     0.133 A 
ATOM      5  C   UNL     1       6.005  -2.530 -17.976  1.00  0.00     0.093 A 
ATOM      6  C   UNL     1       6.524  -2.537 -19.266  1.00  0.00     0.119 A 
ENDROOT
BRANCH   6   7
ATOM      7  O   UNL     1       6.159  -3.487 -20.173  1.00  0.00    -0.508 OA
ATOM      8  H   UNL     1       5.683  -4.197 -19.707  1.00  0.00     0.293 HD
ENDBRANCH   6   7
BRANCH   3   9
ATOM      9  C   UNL     1       7.765   0.462 -16.496  1.00  0.00     0.339 C 
ATOM     10  O   UNL     1       8.474   0.178 -15.542  1.00  0.00    -0.246 OA
BRANCH   9  11
ATOM     11  O   UNL     1       7.377   1.720 -16.786  1.00  0.00    -0.478 OA
ATOM     12  H   UNL     1       7.503   2.369 -16.070  1.00  0.00     0.297 HD
ENDBRANCH   9  11
ENDBRANCH   3   9
BRANCH   4  13
ATOM     13  O   UNL     1       5.835  -1.566 -15.843  1.00  0.00    -0.507 OA
ATOM     14  H   UNL     1       6.387  -1.031 -15.228  1.00  0.00     0.293 HD
ENDBRANCH   4  13
TORSDOF 4
ENDMDL
MODEL 7
REMARK VINA RESULT:      -5.5     12.175     14.930
REMARK SMILES O=C(O)c1ccc(O)cc1O
REMARK SMILES IDX 6 1 5 2 4 3 10 4 9 5 7 6 8 7 2 9 1 10 3 11 11 13
REMARK H PARENT 8 8 3 12 11 14
ROOT
ATOM      1  C   UNL     1      -7.922  -1.534 -31.120  1.00  0.00     0.047 A 
ATOM      2  C   UNL     1      -9.109  -1.128 -31.736  1.00  0.00     0.023 A 
ATOM      3  C   UNL     1      -9.147   0.079 -32.450  1.00  0.00     0.101 A 
ATOM      4  C   UNL     1      -8.003   0.889 -32.494  1.00  0.00     0.133 A 
ATOM      5  C   UNL     1      -6.817   0.480 -31.886  1.00  0.00     0.093 A 
ATOM      6  C   UNL     1      -6.788  -0.733 -31.207  1.00  0.00     0.119 A 
ENDROOT
BRANCH   6   7
ATOM      7  O   UNL     1      -5.655  -1.176 -30.592  1.00  0.00    -0.508 OA
ATOM      8  H   UNL     1      -4.978  -0.479 -30.646  1.00  0.00     0.293 HD
ENDBRANCH   6   7
BRANCH   3   9
ATOM      9  C   UNL     1     -10.379   0.536 -33.131  1.00  0.00     0.339 C 
ATOM     10  O   UNL     1     -10.976  -0.183 -33.918  1.00  0.00    -0.246 OA
BRANCH   9  11
ATOM     11  O   UNL     1     -10.819   1.753 -32.755  1.00  0.00    -0.478 OA
ATOM     12  H   UNL     1     -10.343   2.154 -32.005  1.00  0.00     0.297 HD
ENDBRANCH   9  11
ENDBRANCH   3   9
BRANCH   4  13
ATOM     13  O   UNL     1      -7.972   2.108 -33.121  1.00  0.00    -0.507 OA
ATOM     14  H   UNL     1      -7.142   2.572 -32.868  1.00  0.00     0.293 HD
ENDBRANCH   4  13
TORSDOF 4
ENDMDL
MODEL 8
REMARK VINA RESULT:      -5.4     11.383     12.665
REMARK SMILES O=C(O)c1ccc(O)cc1O
REMARK SMILES IDX 6 1 5 2 4 3 10 4 9 5 7 6 8 7 2 9 1 10 3 11 11 13
REMARK H PARENT 8 8 3 12 11 14
ROOT
ATOM      1  C   UNL     1      -3.612   1.579 -28.373  1.00  0.00     0.047 A 
ATOM      2  C   UNL     1      -4.651   1.460 -29.300  1.00  0.00     0.023 A 
ATOM      3  C   UNL     1      -4.494   0.630 -30.421  1.00  0.00     0.101 A 
ATOM      4  C   UNL     1      -3.274  -0.031 -30.622  1.00  0.00     0.133 A 
ATOM      5  C   UNL     1      -2.240   0.083 -29.694  1.00  0.00     0.093 A 
ATOM      6  C   UNL     1      -2.422   0.886 -28.574  1.00  0.00     0.119 A 
ENDROOT
BRANCH   6   7
ATOM      7  O   UNL     1      -1.441   1.034 -27.639  1.00  0.00    -0.508 OA
ATOM      8  H   UNL     1      -0.612   0.670 -27.996  1.00  0.00     0.293 HD
ENDBRANCH   6   7
BRANCH   3   9
ATOM      9  C   UNL     1      -5.577   0.463 -31.415  1.00  0.00     0.339 C 
ATOM     10  O   UNL     1      -5.814   1.322 -32.251  1.00  0.00    -0.246 OA
BRANCH   9  11
ATOM     11  O   UNL     1      -6.210  -0.726 -31.372  1.00  0.00    -0.478 OA
ATOM     12  H   UNL     1      -6.671  -0.922 -30.535  1.00  0.00     0.297 HD
ENDBRANCH   9  11
ENDBRANCH   3   9
BRANCH   4  13
ATOM     13  O   UNL     1      -3.019  -0.814 -31.719  1.00  0.00    -0.507 OA
ATOM     14  H   UNL     1      -2.393  -0.335 -32.309  1.00  0.00     0.293 HD
ENDBRANCH   4  13
TORSDOF 4
ENDMDL
MODEL 9
REMARK VINA RESULT:      -5.4     10.074     10.952
REMARK SMILES O=C(O)c1ccc(O)cc1O
REMARK SMILES IDX 6 1 5 2 4 3 10 4 9 5 7 6 8 7 2 9 1 10 3 11 11 13
REMARK H PARENT 8 8 3 12 11 14
ROOT
ATOM      1  C   UNL     1      -2.267   0.877 -28.091  1.00  0.00     0.047 A 
ATOM      2  C   UNL     1      -3.146   0.684 -27.022  1.00  0.00     0.023 A 
ATOM      3  C   UNL     1      -4.035  -0.402 -27.039  1.00  0.00     0.101 A 
ATOM      4  C   UNL     1      -4.063  -1.252 -28.154  1.00  0.00     0.133 A 
ATOM      5  C   UNL     1      -3.180  -1.063 -29.217  1.00  0.00     0.093 A 
ATOM      6  C   UNL     1      -2.286   0.001 -29.172  1.00  0.00     0.119 A 
ENDROOT
BRANCH   6   7
ATOM      7  O   UNL     1      -1.406   0.232 -30.187  1.00  0.00    -0.508 OA
ATOM      8  H   UNL     1      -1.222  -0.611 -30.638  1.00  0.00     0.293 HD
ENDBRANCH   6   7
BRANCH   3   9
ATOM      9  C   UNL     1      -4.969  -0.652 -25.919  1.00  0.00     0.339 C 
ATOM     10  O   UNL     1      -5.363  -1.779 -25.657  1.00  0.00    -0.246 OA
BRANCH   9  11
ATOM     11  O   UNL     1      -5.276   0.433 -25.181  1.00  0.00    -0.478 OA
ATOM     12  H   UNL     1      -5.088   0.354 -24.228  1.00  0.00     0.297 HD
ENDBRANCH   9  11
ENDBRANCH   3   9
BRANCH   4  13
ATOM     13  O   UNL     1      -4.938  -2.300 -28.274  1.00  0.00    -0.507 OA
ATOM     14  H   UNL     1      -5.853  -1.965 -28.134  1.00  0.00     0.293 HD
ENDBRANCH   4  13
TORSDOF 4
ENDMDL
MODEL 10
REMARK VINA RESULT:      -5.4      9.938     11.260
REMARK SMILES O=C(O)c1ccc(O)cc1O
REMARK SMILES IDX 6 1 5 2 4 3 10 4 9 5 7 6 8 7 2 9 1 10 3 11 11 13
REMARK H PARENT 8 8 3 12 11 14
ROOT
ATOM      1  C   UNL     1      -3.433  -1.775 -29.800  1.00  0.00     0.047 A 
ATOM      2  C   UNL     1      -3.833  -1.869 -28.465  1.00  0.00     0.023 A 
ATOM      3  C   UNL     1      -4.330  -0.735 -27.804  1.00  0.00     0.101 A 
ATOM      4  C   UNL     1      -4.372   0.493 -28.481  1.00  0.00     0.133 A 
ATOM      5  C   UNL     1      -3.980   0.585 -29.816  1.00  0.00     0.093 A 
ATOM      6  C   UNL     1      -3.517  -0.555 -30.465  1.00  0.00     0.119 A 
ENDROOT
BRANCH   6   7
ATOM      7  O   UNL     1      -3.117  -0.517 -31.767  1.00  0.00    -0.508 OA
ATOM      8  H   UNL     1      -3.786  -0.966 -32.312  1.00  0.00     0.293 HD
ENDBRANCH   6   7
BRANCH   3   9
ATOM      9  C   UNL     1      -4.781  -0.796 -26.396  1.00  0.00     0.339 C 
ATOM     10  O   UNL     1      -5.394  -1.761 -25.965  1.00  0.00    -0.246 OA
BRANCH   9  11
ATOM     11  O   UNL     1      -4.395   0.242 -25.629  1.00  0.00    -0.478 OA
ATOM     12  H   UNL     1      -5.108   0.675 -25.125  1.00  0.00     0.297 HD
ENDBRANCH   9  11
ENDBRANCH   3   9
BRANCH   4  13
ATOM     13  O   UNL     1      -4.790   1.659 -27.892  1.00  0.00    -0.507 OA
ATOM     14  H   UNL     1      -4.793   2.371 -28.571  1.00  0.00     0.293 HD
ENDBRANCH   4  13
TORSDOF 4
ENDMDL
