MODEL 1
REMARK VINA RESULT:      -9.4      0.000      0.000
REMARK SMILES O=C(/C=C/c1ccc(O)c(O)c1)O[C@H]1[C@H](O)C[C@](O)(C(=O)O)C[C@H]1OC(=O)/C=C/c1ccc(O)c(O)c1
REMARK SMILES IDX 17 1 15 2 14 3 24 4 23 5 18 6 16 7 20 9 21 10 22 11 19 13
REMARK SMILES IDX 13 15 2 16 1 17 3 18 4 19 5 20 12 21 6 22 10 23 7 24 8 25
REMARK SMILES IDX 11 26 9 28 25 30 26 31 27 32 28 33 29 34 30 35 37 36 31 37
REMARK SMILES IDX 35 38 32 39 33 40 36 41 34 43
REMARK H PARENT 16 8 22 12 19 14 11 27 9 29 36 42 34 44
ROOT
ATOM      1  C   UNL     1     -10.357  -3.295 -22.865  1.00  0.00     0.083 C 
ATOM      2  C   UNL     1     -10.623  -1.969 -23.583  1.00  0.00     0.162 C 
ATOM      3  C   UNL     1      -9.425  -1.529 -24.445  1.00  0.00     0.246 C 
ATOM      4  C   UNL     1      -8.149  -1.472 -23.580  1.00  0.00     0.223 C 
ATOM      5  C   UNL     1      -7.842  -2.807 -22.887  1.00  0.00     0.097 C 
ATOM      6  C   UNL     1      -9.036  -3.334 -22.084  1.00  0.00     0.168 C 
ENDROOT
BRANCH   2   7
ATOM      7  O   UNL     1     -10.917  -0.961 -22.622  1.00  0.00    -0.389 OA
ATOM      8  H   UNL     1     -10.181  -0.917 -21.984  1.00  0.00     0.211 HD
ENDBRANCH   2   7
BRANCH   6   9
ATOM      9  C   UNL     1      -9.163  -2.643 -20.711  1.00  0.00     0.335 C 
ATOM     10  O   UNL     1      -8.894  -1.481 -20.461  1.00  0.00    -0.249 OA
BRANCH   9  11
ATOM     11  O   UNL     1      -9.586  -3.520 -19.760  1.00  0.00    -0.479 OA
ATOM     12  H   UNL     1     -10.478  -3.848 -20.020  1.00  0.00     0.296 HD
ENDBRANCH   9  11
ENDBRANCH   6   9
BRANCH   6  13
ATOM     13  O   UNL     1      -8.802  -4.734 -21.758  1.00  0.00    -0.378 OA
ATOM     14  H   UNL     1      -9.358  -5.270 -22.358  1.00  0.00     0.212 HD
ENDBRANCH   6  13
BRANCH   3  15
ATOM     15  O   UNL     1      -9.229  -2.468 -25.521  1.00  0.00    -0.452 OA
BRANCH  15  16
ATOM     16  C   UNL     1     -10.101  -2.384 -26.550  1.00  0.00     0.331 C 
ATOM     17  O   UNL     1     -11.137  -3.021 -26.665  1.00  0.00    -0.247 OA
BRANCH  16  18
ATOM     18  C   UNL     1      -9.671  -1.404 -27.568  1.00  0.00     0.094 C 
ATOM     19  C   UNL     1     -10.152  -1.357 -28.820  1.00  0.00     0.016 C 
BRANCH  19  20
ATOM     20  C   UNL     1      -9.680  -0.414 -29.844  1.00  0.00    -0.021 A 
ATOM     21  C   UNL     1     -10.540   0.156 -30.796  1.00  0.00     0.058 A 
ATOM     22  C   UNL     1      -8.307  -0.117 -29.892  1.00  0.00     0.012 A 
ATOM     23  C   UNL     1     -10.024   1.025 -31.753  1.00  0.00     0.157 A 
ATOM     24  C   UNL     1      -7.798   0.757 -30.857  1.00  0.00     0.051 A 
ATOM     25  C   UNL     1      -8.664   1.324 -31.777  1.00  0.00     0.157 A 
BRANCH  23  26
ATOM     26  O   UNL     1     -10.818   1.612 -32.700  1.00  0.00    -0.504 OA
ATOM     27  H   UNL     1     -11.690   1.783 -32.305  1.00  0.00     0.293 HD
ENDBRANCH  23  26
BRANCH  25  28
ATOM     28  O   UNL     1      -8.170   2.177 -32.720  1.00  0.00    -0.504 OA
ATOM     29  H   UNL     1      -7.199   2.080 -32.655  1.00  0.00     0.293 HD
ENDBRANCH  25  28
ENDBRANCH  19  20
ENDBRANCH  16  18
ENDBRANCH  15  16
ENDBRANCH   3  15
BRANCH   4  30
ATOM     30  O   UNL     1      -7.027  -0.906 -24.314  1.00  0.00    -0.455 OA
BRANCH  30  31
ATOM     31  C   UNL     1      -7.102   0.288 -24.941  1.00  0.00     0.331 C 
ATOM     32  O   UNL     1      -7.511   1.344 -24.495  1.00  0.00    -0.247 OA
BRANCH  31  33
ATOM     33  C   UNL     1      -6.584   0.100 -26.313  1.00  0.00     0.094 C 
ATOM     34  C   UNL     1      -5.268  -0.067 -26.511  1.00  0.00     0.016 C 
BRANCH  34  35
ATOM     35  C   UNL     1      -4.674  -0.254 -27.839  1.00  0.00    -0.021 A 
ATOM     36  C   UNL     1      -4.639   0.784 -28.783  1.00  0.00     0.058 A 
ATOM     37  C   UNL     1      -4.177  -1.520 -28.186  1.00  0.00     0.012 A 
ATOM     38  C   UNL     1      -4.092   0.548 -30.041  1.00  0.00     0.157 A 
ATOM     39  C   UNL     1      -3.625  -1.747 -29.450  1.00  0.00     0.051 A 
ATOM     40  C   UNL     1      -3.588  -0.708 -30.366  1.00  0.00     0.157 A 
BRANCH  38  41
ATOM     41  O   UNL     1      -4.035   1.522 -31.000  1.00  0.00    -0.504 OA
ATOM     42  H   UNL     1      -3.699   1.123 -31.821  1.00  0.00     0.293 HD
ENDBRANCH  38  41
BRANCH  40  43
ATOM     43  O   UNL     1      -3.053  -0.929 -31.602  1.00  0.00    -0.504 OA
ATOM     44  H   UNL     1      -3.726  -1.464 -32.069  1.00  0.00     0.293 HD
ENDBRANCH  40  43
ENDBRANCH  34  35
ENDBRANCH  31  33
ENDBRANCH  30  31
ENDBRANCH   4  30
TORSDOF 16
ENDMDL
MODEL 2
REMARK VINA RESULT:      -9.4      2.281      3.891
REMARK SMILES O=C(/C=C/c1ccc(O)c(O)c1)O[C@H]1[C@H](O)C[C@](O)(C(=O)O)C[C@H]1OC(=O)/C=C/c1ccc(O)c(O)c1
REMARK SMILES IDX 17 1 15 2 14 3 24 4 23 5 18 6 16 7 20 9 21 10 22 11 19 13
REMARK SMILES IDX 13 15 2 16 1 17 3 18 4 19 5 20 12 21 6 22 10 23 7 24 8 25
REMARK SMILES IDX 11 26 9 28 25 30 26 31 27 32 28 33 29 34 30 35 37 36 31 37
REMARK SMILES IDX 35 38 32 39 33 40 36 41 34 43
REMARK H PARENT 16 8 22 12 19 14 11 27 9 29 36 42 34 44
ROOT
ATOM      1  C   UNL     1     -11.197  -1.990 -24.037  1.00  0.00     0.083 C 
ATOM      2  C   UNL     1      -9.667  -1.985 -24.109  1.00  0.00     0.162 C 
ATOM      3  C   UNL     1      -9.157  -1.623 -25.517  1.00  0.00     0.246 C 
ATOM      4  C   UNL     1      -9.782  -2.570 -26.561  1.00  0.00     0.223 C 
ATOM      5  C   UNL     1     -11.316  -2.555 -26.532  1.00  0.00     0.097 C 
ATOM      6  C   UNL     1     -11.876  -2.825 -25.132  1.00  0.00     0.168 C 
ENDROOT
BRANCH   2   7
ATOM      7  O   UNL     1      -9.171  -3.265 -23.736  1.00  0.00    -0.389 OA
ATOM      8  H   UNL     1      -8.403  -3.476 -24.296  1.00  0.00     0.211 HD
ENDBRANCH   2   7
BRANCH   6   9
ATOM      9  C   UNL     1     -11.877  -4.328 -24.785  1.00  0.00     0.335 C 
ATOM     10  O   UNL     1     -10.929  -5.088 -24.871  1.00  0.00    -0.249 OA
BRANCH   9  11
ATOM     11  O   UNL     1     -13.116  -4.739 -24.399  1.00  0.00    -0.479 OA
ATOM     12  H   UNL     1     -13.375  -4.222 -23.600  1.00  0.00     0.296 HD
ENDBRANCH   9  11
ENDBRANCH   6   9
BRANCH   6  13
ATOM     13  O   UNL     1     -13.283  -2.452 -25.107  1.00  0.00    -0.378 OA
ATOM     14  H   UNL     1     -13.487  -2.144 -24.201  1.00  0.00     0.212 HD
ENDBRANCH   6  13
BRANCH   3  15
ATOM     15  O   UNL     1      -9.520  -0.263 -25.831  1.00  0.00    -0.452 OA
BRANCH  15  16
ATOM     16  C   UNL     1      -8.534   0.656 -25.723  1.00  0.00     0.331 C 
ATOM     17  O   UNL     1      -8.330   1.376 -24.758  1.00  0.00    -0.247 OA
BRANCH  16  18
ATOM     18  C   UNL     1      -7.687   0.710 -26.930  1.00  0.00     0.094 C 
ATOM     19  C   UNL     1      -7.457   1.824 -27.642  1.00  0.00     0.016 C 
BRANCH  19  20
ATOM     20  C   UNL     1      -6.656   1.860 -28.874  1.00  0.00    -0.021 A 
ATOM     21  C   UNL     1      -7.063   1.220 -30.055  1.00  0.00     0.058 A 
ATOM     22  C   UNL     1      -5.417   2.523 -28.842  1.00  0.00     0.012 A 
ATOM     23  C   UNL     1      -6.245   1.274 -31.181  1.00  0.00     0.157 A 
ATOM     24  C   UNL     1      -4.603   2.573 -29.977  1.00  0.00     0.051 A 
ATOM     25  C   UNL     1      -5.028   1.949 -31.139  1.00  0.00     0.157 A 
BRANCH  23  26
ATOM     26  O   UNL     1      -6.595   0.672 -32.358  1.00  0.00    -0.504 OA
ATOM     27  H   UNL     1      -6.980  -0.198 -32.154  1.00  0.00     0.293 HD
ENDBRANCH  23  26
BRANCH  25  28
ATOM     28  O   UNL     1      -4.236   1.996 -32.249  1.00  0.00    -0.504 OA
ATOM     29  H   UNL     1      -3.853   1.099 -32.315  1.00  0.00     0.293 HD
ENDBRANCH  25  28
ENDBRANCH  19  20
ENDBRANCH  16  18
ENDBRANCH  15  16
ENDBRANCH   3  15
BRANCH   4  30
ATOM     30  O   UNL     1      -9.205  -2.370 -27.882  1.00  0.00    -0.455 OA
BRANCH  30  31
ATOM     31  C   UNL     1      -8.355  -3.257 -28.442  1.00  0.00     0.331 C 
ATOM     32  O   UNL     1      -8.475  -4.467 -28.514  1.00  0.00    -0.247 OA
BRANCH  31  33
ATOM     33  C   UNL     1      -7.209  -2.494 -28.978  1.00  0.00     0.094 C 
ATOM     34  C   UNL     1      -6.082  -2.389 -28.257  1.00  0.00     0.016 C 
BRANCH  34  35
ATOM     35  C   UNL     1      -4.903  -1.646 -28.715  1.00  0.00    -0.021 A 
ATOM     36  C   UNL     1      -4.527  -1.622 -30.067  1.00  0.00     0.058 A 
ATOM     37  C   UNL     1      -4.107  -0.987 -27.765  1.00  0.00     0.012 A 
ATOM     38  C   UNL     1      -3.382  -0.927 -30.448  1.00  0.00     0.157 A 
ATOM     39  C   UNL     1      -2.963  -0.288 -28.157  1.00  0.00     0.051 A 
ATOM     40  C   UNL     1      -2.612  -0.264 -29.497  1.00  0.00     0.157 A 
BRANCH  38  41
ATOM     41  O   UNL     1      -2.968  -0.873 -31.750  1.00  0.00    -0.504 OA
ATOM     42  H   UNL     1      -2.017  -1.076 -31.776  1.00  0.00     0.293 HD
ENDBRANCH  38  41
BRANCH  40  43
ATOM     43  O   UNL     1      -1.491   0.415 -29.880  1.00  0.00    -0.504 OA
ATOM     44  H   UNL     1      -1.151   0.814 -29.054  1.00  0.00     0.293 HD
ENDBRANCH  40  43
ENDBRANCH  34  35
ENDBRANCH  31  33
ENDBRANCH  30  31
ENDBRANCH   4  30
TORSDOF 16
ENDMDL
MODEL 3
REMARK VINA RESULT:      -9.4      1.808      2.261
REMARK SMILES O=C(/C=C/c1ccc(O)c(O)c1)O[C@H]1[C@H](O)C[C@](O)(C(=O)O)C[C@H]1OC(=O)/C=C/c1ccc(O)c(O)c1
REMARK SMILES IDX 17 1 15 2 14 3 24 4 23 5 18 6 16 7 20 9 21 10 22 11 19 13
REMARK SMILES IDX 13 15 2 16 1 17 3 18 4 19 5 20 12 21 6 22 10 23 7 24 8 25
REMARK SMILES IDX 11 26 9 28 25 30 26 31 27 32 28 33 29 34 30 35 37 36 31 37
REMARK SMILES IDX 35 38 32 39 33 40 36 41 34 43
REMARK H PARENT 16 8 22 12 19 14 11 27 9 29 36 42 34 44
ROOT
ATOM      1  C   UNL     1      -9.805  -3.148 -23.191  1.00  0.00     0.083 C 
ATOM      2  C   UNL     1     -10.353  -1.873 -23.839  1.00  0.00     0.162 C 
ATOM      3  C   UNL     1      -9.248  -1.060 -24.539  1.00  0.00     0.246 C 
ATOM      4  C   UNL     1      -8.108  -0.759 -23.544  1.00  0.00     0.223 C 
ATOM      5  C   UNL     1      -7.517  -2.029 -22.918  1.00  0.00     0.097 C 
ATOM      6  C   UNL     1      -8.590  -2.920 -22.281  1.00  0.00     0.168 C 
ENDROOT
BRANCH   2   7
ATOM      7  O   UNL     1     -10.982  -1.070 -22.847  1.00  0.00    -0.389 OA
ATOM      8  H   UNL     1     -10.314  -0.474 -22.461  1.00  0.00     0.211 HD
ENDBRANCH   2   7
BRANCH   6   9
ATOM      9  C   UNL     1      -9.009  -2.417 -20.885  1.00  0.00     0.335 C 
ATOM     10  O   UNL     1      -9.096  -1.253 -20.534  1.00  0.00    -0.249 OA
BRANCH   9  11
ATOM     11  O   UNL     1      -9.238  -3.459 -20.039  1.00  0.00    -0.479 OA
ATOM     12  H   UNL     1     -10.104  -3.307 -19.594  1.00  0.00     0.296 HD
ENDBRANCH   9  11
ENDBRANCH   6   9
BRANCH   6  13
ATOM     13  O   UNL     1      -8.022  -4.236 -22.031  1.00  0.00    -0.378 OA
ATOM     14  H   UNL     1      -7.198  -4.303 -22.553  1.00  0.00     0.212 HD
ENDBRANCH   6  13
BRANCH   3  15
ATOM     15  O   UNL     1      -8.722  -1.812 -25.651  1.00  0.00    -0.452 OA
BRANCH  15  16
ATOM     16  C   UNL     1      -9.225  -1.504 -26.868  1.00  0.00     0.331 C 
ATOM     17  O   UNL     1     -10.357  -1.744 -27.256  1.00  0.00    -0.247 OA
BRANCH  16  18
ATOM     18  C   UNL     1      -8.236  -0.816 -27.723  1.00  0.00     0.094 C 
ATOM     19  C   UNL     1      -8.017   0.508 -27.707  1.00  0.00     0.016 C 
BRANCH  19  20
ATOM     20  C   UNL     1      -7.071   1.193 -28.599  1.00  0.00    -0.021 A 
ATOM     21  C   UNL     1      -6.779   0.725 -29.890  1.00  0.00     0.058 A 
ATOM     22  C   UNL     1      -6.403   2.330 -28.112  1.00  0.00     0.012 A 
ATOM     23  C   UNL     1      -5.855   1.409 -30.674  1.00  0.00     0.157 A 
ATOM     24  C   UNL     1      -5.477   3.011 -28.907  1.00  0.00     0.051 A 
ATOM     25  C   UNL     1      -5.214   2.545 -30.184  1.00  0.00     0.157 A 
BRANCH  23  26
ATOM     26  O   UNL     1      -5.537   1.000 -31.940  1.00  0.00    -0.504 OA
ATOM     27  H   UNL     1      -5.264   0.067 -31.901  1.00  0.00     0.293 HD
ENDBRANCH  23  26
BRANCH  25  28
ATOM     28  O   UNL     1      -4.311   3.207 -30.963  1.00  0.00    -0.504 OA
ATOM     29  H   UNL     1      -3.461   3.114 -30.488  1.00  0.00     0.293 HD
ENDBRANCH  25  28
ENDBRANCH  19  20
ENDBRANCH  16  18
ENDBRANCH  15  16
ENDBRANCH   3  15
BRANCH   4  30
ATOM     30  O   UNL     1      -7.120   0.143 -24.116  1.00  0.00    -0.455 OA
BRANCH  30  31
ATOM     31  C   UNL     1      -5.806  -0.163 -24.168  1.00  0.00     0.331 C 
ATOM     32  O   UNL     1      -4.990  -0.121 -23.265  1.00  0.00    -0.247 OA
BRANCH  31  33
ATOM     33  C   UNL     1      -5.503  -0.579 -25.554  1.00  0.00     0.094 C 
ATOM     34  C   UNL     1      -4.354  -0.195 -26.129  1.00  0.00     0.016 C 
BRANCH  34  35
ATOM     35  C   UNL     1      -3.982  -0.560 -27.500  1.00  0.00    -0.021 A 
ATOM     36  C   UNL     1      -2.981   0.130 -28.201  1.00  0.00     0.058 A 
ATOM     37  C   UNL     1      -4.685  -1.594 -28.140  1.00  0.00     0.012 A 
ATOM     38  C   UNL     1      -2.686  -0.234 -29.511  1.00  0.00     0.157 A 
ATOM     39  C   UNL     1      -4.378  -1.957 -29.454  1.00  0.00     0.051 A 
ATOM     40  C   UNL     1      -3.379  -1.272 -30.127  1.00  0.00     0.157 A 
BRANCH  38  41
ATOM     41  O   UNL     1      -1.722   0.406 -30.241  1.00  0.00    -0.504 OA
ATOM     42  H   UNL     1      -1.850   1.365 -30.141  1.00  0.00     0.293 HD
ENDBRANCH  38  41
BRANCH  40  43
ATOM     43  O   UNL     1      -3.082  -1.623 -31.413  1.00  0.00    -0.504 OA
ATOM     44  H   UNL     1      -2.846  -0.779 -31.849  1.00  0.00     0.293 HD
ENDBRANCH  40  43
ENDBRANCH  34  35
ENDBRANCH  31  33
ENDBRANCH  30  31
ENDBRANCH   4  30
TORSDOF 16
ENDMDL
MODEL 4
REMARK VINA RESULT:      -9.4      1.406      5.270
REMARK SMILES O=C(/C=C/c1ccc(O)c(O)c1)O[C@H]1[C@H](O)C[C@](O)(C(=O)O)C[C@H]1OC(=O)/C=C/c1ccc(O)c(O)c1
REMARK SMILES IDX 17 1 15 2 14 3 24 4 23 5 18 6 16 7 20 9 21 10 22 11 19 13
REMARK SMILES IDX 13 15 2 16 1 17 3 18 4 19 5 20 12 21 6 22 10 23 7 24 8 25
REMARK SMILES IDX 11 26 9 28 25 30 26 31 27 32 28 33 29 34 30 35 37 36 31 37
REMARK SMILES IDX 35 38 32 39 33 40 36 41 34 43
REMARK H PARENT 16 8 22 12 19 14 11 27 9 29 36 42 34 44
ROOT
ATOM      1  C   UNL     1      -8.388  -1.158 -21.817  1.00  0.00     0.083 C 
ATOM      2  C   UNL     1      -7.279  -1.928 -22.538  1.00  0.00     0.162 C 
ATOM      3  C   UNL     1      -7.150  -1.507 -24.014  1.00  0.00     0.246 C 
ATOM      4  C   UNL     1      -8.513  -1.655 -24.723  1.00  0.00     0.223 C 
ATOM      5  C   UNL     1      -9.627  -0.853 -24.038  1.00  0.00     0.097 C 
ATOM      6  C   UNL     1      -9.741  -1.171 -22.543  1.00  0.00     0.168 C 
ENDROOT
BRANCH   2   7
ATOM      7  O   UNL     1      -7.546  -3.324 -22.460  1.00  0.00    -0.389 OA
ATOM      8  H   UNL     1      -6.945  -3.789 -23.071  1.00  0.00     0.211 HD
ENDBRANCH   2   7
BRANCH   6   9
ATOM      9  C   UNL     1     -10.514  -2.480 -22.285  1.00  0.00     0.335 C 
ATOM     10  O   UNL     1     -10.331  -3.256 -21.363  1.00  0.00    -0.249 OA
BRANCH   9  11
ATOM     11  O   UNL     1     -11.432  -2.707 -23.265  1.00  0.00    -0.479 OA
ATOM     12  H   UNL     1     -11.707  -3.652 -23.214  1.00  0.00     0.296 HD
ENDBRANCH   9  11
ENDBRANCH   6   9
BRANCH   6  13
ATOM     13  O   UNL     1     -10.552  -0.146 -21.903  1.00  0.00    -0.378 OA
ATOM     14  H   UNL     1     -10.745   0.536 -22.577  1.00  0.00     0.212 HD
ENDBRANCH   6  13
BRANCH   3  15
ATOM     15  O   UNL     1      -6.720  -0.134 -24.092  1.00  0.00    -0.452 OA
BRANCH  15  16
ATOM     16  C   UNL     1      -5.421   0.065 -24.411  1.00  0.00     0.331 C 
ATOM     17  O   UNL     1      -4.539   0.408 -23.640  1.00  0.00    -0.247 OA
BRANCH  16  18
ATOM     18  C   UNL     1      -5.153  -0.185 -25.842  1.00  0.00     0.094 C 
ATOM     19  C   UNL     1      -4.017   0.159 -26.468  1.00  0.00     0.016 C 
BRANCH  19  20
ATOM     20  C   UNL     1      -3.779  -0.044 -27.904  1.00  0.00    -0.021 A 
ATOM     21  C   UNL     1      -4.804  -0.398 -28.795  1.00  0.00     0.058 A 
ATOM     22  C   UNL     1      -2.463   0.076 -28.383  1.00  0.00     0.012 A 
ATOM     23  C   UNL     1      -4.506  -0.597 -30.140  1.00  0.00     0.157 A 
ATOM     24  C   UNL     1      -2.172  -0.125 -29.735  1.00  0.00     0.051 A 
ATOM     25  C   UNL     1      -3.200  -0.457 -30.603  1.00  0.00     0.157 A 
BRANCH  23  26
ATOM     26  O   UNL     1      -5.467  -0.938 -31.051  1.00  0.00    -0.504 OA
ATOM     27  H   UNL     1      -5.866  -1.781 -30.774  1.00  0.00     0.293 HD
ENDBRANCH  23  26
BRANCH  25  28
ATOM     28  O   UNL     1      -2.919  -0.655 -31.923  1.00  0.00    -0.504 OA
ATOM     29  H   UNL     1      -3.781  -0.882 -32.327  1.00  0.00     0.293 HD
ENDBRANCH  25  28
ENDBRANCH  19  20
ENDBRANCH  16  18
ENDBRANCH  15  16
ENDBRANCH   3  15
BRANCH   4  30
ATOM     30  O   UNL     1      -8.401  -1.424 -26.155  1.00  0.00    -0.455 OA
BRANCH  30  31
ATOM     31  C   UNL     1      -9.065  -2.171 -27.062  1.00  0.00     0.331 C 
ATOM     32  O   UNL     1      -9.277  -3.370 -27.035  1.00  0.00    -0.247 OA
BRANCH  31  33
ATOM     33  C   UNL     1      -9.516  -1.263 -28.138  1.00  0.00     0.094 C 
ATOM     34  C   UNL     1      -8.801  -1.162 -29.269  1.00  0.00     0.016 C 
BRANCH  34  35
ATOM     35  C   UNL     1      -9.177  -0.282 -30.379  1.00  0.00    -0.021 A 
ATOM     36  C   UNL     1     -10.158  -0.651 -31.313  1.00  0.00     0.058 A 
ATOM     37  C   UNL     1      -8.499   0.938 -30.536  1.00  0.00     0.012 A 
ATOM     38  C   UNL     1     -10.457   0.206 -32.368  1.00  0.00     0.157 A 
ATOM     39  C   UNL     1      -8.810   1.795 -31.595  1.00  0.00     0.051 A 
ATOM     40  C   UNL     1      -9.789   1.420 -32.502  1.00  0.00     0.157 A 
BRANCH  38  41
ATOM     41  O   UNL     1     -11.402  -0.105 -33.308  1.00  0.00    -0.504 OA
ATOM     42  H   UNL     1     -11.949  -0.830 -32.962  1.00  0.00     0.293 HD
ENDBRANCH  38  41
BRANCH  40  43
ATOM     43  O   UNL     1     -10.091   2.254 -33.539  1.00  0.00    -0.504 OA
ATOM     44  H   UNL     1     -11.010   2.022 -33.782  1.00  0.00     0.293 HD
ENDBRANCH  40  43
ENDBRANCH  34  35
ENDBRANCH  31  33
ENDBRANCH  30  31
ENDBRANCH   4  30
TORSDOF 16
ENDMDL
MODEL 5
REMARK VINA RESULT:      -9.4      2.021      3.547
REMARK SMILES O=C(/C=C/c1ccc(O)c(O)c1)O[C@H]1[C@H](O)C[C@](O)(C(=O)O)C[C@H]1OC(=O)/C=C/c1ccc(O)c(O)c1
REMARK SMILES IDX 17 1 15 2 14 3 24 4 23 5 18 6 16 7 20 9 21 10 22 11 19 13
REMARK SMILES IDX 13 15 2 16 1 17 3 18 4 19 5 20 12 21 6 22 10 23 7 24 8 25
REMARK SMILES IDX 11 26 9 28 25 30 26 31 27 32 28 33 29 34 30 35 37 36 31 37
REMARK SMILES IDX 35 38 32 39 33 40 36 41 34 43
REMARK H PARENT 16 8 22 12 19 14 11 27 9 29 36 42 34 44
ROOT
ATOM      1  C   UNL     1      -8.847  -1.240 -22.737  1.00  0.00     0.083 C 
ATOM      2  C   UNL     1      -7.641  -0.934 -23.629  1.00  0.00     0.162 C 
ATOM      3  C   UNL     1      -8.047  -0.738 -25.102  1.00  0.00     0.246 C 
ATOM      4  C   UNL     1      -8.835  -1.968 -25.597  1.00  0.00     0.223 C 
ATOM      5  C   UNL     1     -10.073  -2.263 -24.740  1.00  0.00     0.097 C 
ATOM      6  C   UNL     1      -9.736  -2.382 -23.250  1.00  0.00     0.168 C 
ENDROOT
BRANCH   2   7
ATOM      7  O   UNL     1      -6.698  -1.994 -23.530  1.00  0.00    -0.389 OA
ATOM      8  H   UNL     1      -6.451  -2.276 -24.429  1.00  0.00     0.211 HD
ENDBRANCH   2   7
BRANCH   6   9
ATOM      9  C   UNL     1      -9.151  -3.764 -22.894  1.00  0.00     0.335 C 
ATOM     10  O   UNL     1      -8.254  -3.984 -22.100  1.00  0.00    -0.249 OA
BRANCH   9  11
ATOM     11  O   UNL     1      -9.742  -4.747 -23.628  1.00  0.00    -0.479 OA
ATOM     12  H   UNL     1     -10.330  -4.321 -24.294  1.00  0.00     0.296 HD
ENDBRANCH   9  11
ENDBRANCH   6   9
BRANCH   6  13
ATOM     13  O   UNL     1     -10.970  -2.308 -22.481  1.00  0.00    -0.378 OA
ATOM     14  H   UNL     1     -11.679  -2.700 -23.028  1.00  0.00     0.212 HD
ENDBRANCH   6  13
BRANCH   3  15
ATOM     15  O   UNL     1      -8.872   0.438 -25.227  1.00  0.00    -0.452 OA
BRANCH  15  16
ATOM     16  C   UNL     1      -8.242   1.569 -25.613  1.00  0.00     0.331 C 
ATOM     17  O   UNL     1      -8.248   2.633 -25.013  1.00  0.00    -0.247 OA
BRANCH  16  18
ATOM     18  C   UNL     1      -7.508   1.393 -26.882  1.00  0.00     0.094 C 
ATOM     19  C   UNL     1      -7.088   2.405 -27.658  1.00  0.00     0.016 C 
BRANCH  19  20
ATOM     20  C   UNL     1      -6.406   2.222 -28.947  1.00  0.00    -0.021 A 
ATOM     21  C   UNL     1      -6.927   1.409 -29.966  1.00  0.00     0.058 A 
ATOM     22  C   UNL     1      -5.163   2.851 -29.136  1.00  0.00     0.012 A 
ATOM     23  C   UNL     1      -6.218   1.261 -31.155  1.00  0.00     0.157 A 
ATOM     24  C   UNL     1      -4.459   2.697 -30.334  1.00  0.00     0.051 A 
ATOM     25  C   UNL     1      -4.996   1.905 -31.334  1.00  0.00     0.157 A 
BRANCH  23  26
ATOM     26  O   UNL     1      -6.682   0.485 -32.181  1.00  0.00    -0.504 OA
ATOM     27  H   UNL     1      -7.415  -0.060 -31.846  1.00  0.00     0.293 HD
ENDBRANCH  23  26
BRANCH  25  28
ATOM     28  O   UNL     1      -4.311   1.752 -32.504  1.00  0.00    -0.504 OA
ATOM     29  H   UNL     1      -3.697   2.513 -32.531  1.00  0.00     0.293 HD
ENDBRANCH  25  28
ENDBRANCH  19  20
ENDBRANCH  16  18
ENDBRANCH  15  16
ENDBRANCH   3  15
BRANCH   4  30
ATOM     30  O   UNL     1      -9.097  -1.898 -27.026  1.00  0.00    -0.455 OA
BRANCH  30  31
ATOM     31  C   UNL     1      -8.505  -2.727 -27.912  1.00  0.00     0.331 C 
ATOM     32  O   UNL     1      -8.820  -3.869 -28.196  1.00  0.00    -0.247 OA
BRANCH  31  33
ATOM     33  C   UNL     1      -7.366  -1.997 -28.508  1.00  0.00     0.094 C 
ATOM     34  C   UNL     1      -6.123  -2.212 -28.052  1.00  0.00     0.016 C 
BRANCH  34  35
ATOM     35  C   UNL     1      -4.943  -1.525 -28.585  1.00  0.00    -0.021 A 
ATOM     36  C   UNL     1      -4.588  -1.614 -29.941  1.00  0.00     0.058 A 
ATOM     37  C   UNL     1      -4.122  -0.805 -27.703  1.00  0.00     0.012 A 
ATOM     38  C   UNL     1      -3.441  -0.969 -30.393  1.00  0.00     0.157 A 
ATOM     39  C   UNL     1      -2.975  -0.156 -28.167  1.00  0.00     0.051 A 
ATOM     40  C   UNL     1      -2.646  -0.244 -29.510  1.00  0.00     0.157 A 
BRANCH  38  41
ATOM     41  O   UNL     1      -3.047  -1.024 -31.702  1.00  0.00    -0.504 OA
ATOM     42  H   UNL     1      -3.226  -0.160 -32.111  1.00  0.00     0.293 HD
ENDBRANCH  38  41
BRANCH  40  43
ATOM     43  O   UNL     1      -1.523   0.386 -29.963  1.00  0.00    -0.504 OA
ATOM     44  H   UNL     1      -1.849   1.223 -30.349  1.00  0.00     0.293 HD
ENDBRANCH  40  43
ENDBRANCH  34  35
ENDBRANCH  31  33
ENDBRANCH  30  31
ENDBRANCH   4  30
TORSDOF 16
ENDMDL
MODEL 6
REMARK VINA RESULT:      -9.3      1.385      4.673
REMARK SMILES O=C(/C=C/c1ccc(O)c(O)c1)O[C@H]1[C@H](O)C[C@](O)(C(=O)O)C[C@H]1OC(=O)/C=C/c1ccc(O)c(O)c1
REMARK SMILES IDX 17 1 15 2 14 3 24 4 23 5 18 6 16 7 20 9 21 10 22 11 19 13
REMARK SMILES IDX 13 15 2 16 1 17 3 18 4 19 5 20 12 21 6 22 10 23 7 24 8 25
REMARK SMILES IDX 11 26 9 28 25 30 26 31 27 32 28 33 29 34 30 35 37 36 31 37
REMARK SMILES IDX 35 38 32 39 33 40 36 41 34 43
REMARK H PARENT 16 8 22 12 19 14 11 27 9 29 36 42 34 44
ROOT
ATOM      1  C   UNL     1      -8.412  -1.054 -22.568  1.00  0.00     0.083 C 
ATOM      2  C   UNL     1      -7.420  -0.934 -23.729  1.00  0.00     0.162 C 
ATOM      3  C   UNL     1      -8.135  -0.759 -25.082  1.00  0.00     0.246 C 
ATOM      4  C   UNL     1      -9.140  -1.909 -25.297  1.00  0.00     0.223 C 
ATOM      5  C   UNL     1     -10.169  -2.016 -24.164  1.00  0.00     0.097 C 
ATOM      6  C   UNL     1      -9.510  -2.105 -22.783  1.00  0.00     0.168 C 
ENDROOT
BRANCH   2   7
ATOM      7  O   UNL     1      -6.596  -2.093 -23.769  1.00  0.00    -0.389 OA
ATOM      8  H   UNL     1      -6.930  -2.734 -23.115  1.00  0.00     0.211 HD
ENDBRANCH   2   7
BRANCH   6   9
ATOM      9  C   UNL     1      -9.006  -3.529 -22.471  1.00  0.00     0.335 C 
ATOM     10  O   UNL     1      -8.030  -3.818 -21.800  1.00  0.00    -0.249 OA
BRANCH   9  11
ATOM     11  O   UNL     1      -9.776  -4.466 -23.089  1.00  0.00    -0.479 OA
ATOM     12  H   UNL     1     -10.404  -4.834 -22.423  1.00  0.00     0.296 HD
ENDBRANCH   9  11
ENDBRANCH   6   9
BRANCH   6  13
ATOM     13  O   UNL     1     -10.516  -1.851 -21.763  1.00  0.00    -0.378 OA
ATOM     14  H   UNL     1     -10.220  -1.074 -21.248  1.00  0.00     0.212 HD
ENDBRANCH   6  13
BRANCH   3  15
ATOM     15  O   UNL     1      -8.839   0.499 -25.101  1.00  0.00    -0.452 OA
BRANCH  15  16
ATOM     16  C   UNL     1      -8.263   1.493 -25.813  1.00  0.00     0.331 C 
ATOM     17  O   UNL     1      -8.510   2.684 -25.709  1.00  0.00    -0.247 OA
BRANCH  16  18
ATOM     18  C   UNL     1      -7.257   0.985 -26.768  1.00  0.00     0.094 C 
ATOM     19  C   UNL     1      -7.037   1.511 -27.983  1.00  0.00     0.016 C 
BRANCH  19  20
ATOM     20  C   UNL     1      -6.073   0.968 -28.949  1.00  0.00    -0.021 A 
ATOM     21  C   UNL     1      -5.618   1.704 -30.054  1.00  0.00     0.058 A 
ATOM     22  C   UNL     1      -5.633  -0.357 -28.777  1.00  0.00     0.012 A 
ATOM     23  C   UNL     1      -4.721   1.120 -30.945  1.00  0.00     0.157 A 
ATOM     24  C   UNL     1      -4.732  -0.934 -29.676  1.00  0.00     0.051 A 
ATOM     25  C   UNL     1      -4.281  -0.187 -30.751  1.00  0.00     0.157 A 
BRANCH  23  26
ATOM     26  O   UNL     1      -4.242   1.794 -32.035  1.00  0.00    -0.504 OA
ATOM     27  H   UNL     1      -4.051   2.710 -31.769  1.00  0.00     0.293 HD
ENDBRANCH  23  26
BRANCH  25  28
ATOM     28  O   UNL     1      -3.402  -0.748 -31.630  1.00  0.00    -0.504 OA
ATOM     29  H   UNL     1      -3.944  -1.364 -32.161  1.00  0.00     0.293 HD
ENDBRANCH  25  28
ENDBRANCH  19  20
ENDBRANCH  16  18
ENDBRANCH  15  16
ENDBRANCH   3  15
BRANCH   4  30
ATOM     30  O   UNL     1      -9.719  -1.874 -26.631  1.00  0.00    -0.455 OA
BRANCH  30  31
ATOM     31  C   UNL     1      -9.673  -2.933 -27.468  1.00  0.00     0.331 C 
ATOM     32  O   UNL     1      -9.814  -4.111 -27.194  1.00  0.00    -0.247 OA
BRANCH  31  33
ATOM     33  C   UNL     1      -9.415  -2.412 -28.827  1.00  0.00     0.094 C 
ATOM     34  C   UNL     1      -9.645  -1.119 -29.101  1.00  0.00     0.016 C 
BRANCH  34  35
ATOM     35  C   UNL     1      -9.420  -0.526 -30.423  1.00  0.00    -0.021 A 
ATOM     36  C   UNL     1     -10.357   0.335 -31.014  1.00  0.00     0.058 A 
ATOM     37  C   UNL     1      -8.259  -0.875 -31.132  1.00  0.00     0.012 A 
ATOM     38  C   UNL     1     -10.112   0.847 -32.284  1.00  0.00     0.157 A 
ATOM     39  C   UNL     1      -8.018  -0.352 -32.405  1.00  0.00     0.051 A 
ATOM     40  C   UNL     1      -8.949   0.507 -32.969  1.00  0.00     0.157 A 
BRANCH  38  41
ATOM     41  O   UNL     1     -10.992   1.689 -32.908  1.00  0.00    -0.504 OA
ATOM     42  H   UNL     1     -11.869   1.269 -32.905  1.00  0.00     0.293 HD
ENDBRANCH  38  41
BRANCH  40  43
ATOM     43  O   UNL     1      -8.717   1.015 -34.215  1.00  0.00    -0.504 OA
ATOM     44  H   UNL     1      -8.035   0.427 -34.598  1.00  0.00     0.293 HD
ENDBRANCH  40  43
ENDBRANCH  34  35
ENDBRANCH  31  33
ENDBRANCH  30  31
ENDBRANCH   4  30
TORSDOF 16
ENDMDL
MODEL 7
REMARK VINA RESULT:      -9.3      2.578      4.993
REMARK SMILES O=C(/C=C/c1ccc(O)c(O)c1)O[C@H]1[C@H](O)C[C@](O)(C(=O)O)C[C@H]1OC(=O)/C=C/c1ccc(O)c(O)c1
REMARK SMILES IDX 17 1 15 2 14 3 24 4 23 5 18 6 16 7 20 9 21 10 22 11 19 13
REMARK SMILES IDX 13 15 2 16 1 17 3 18 4 19 5 20 12 21 6 22 10 23 7 24 8 25
REMARK SMILES IDX 11 26 9 28 25 30 26 31 27 32 28 33 29 34 30 35 37 36 31 37
REMARK SMILES IDX 35 38 32 39 33 40 36 41 34 43
REMARK H PARENT 16 8 22 12 19 14 11 27 9 29 36 42 34 44
ROOT
ATOM      1  C   UNL     1      -9.640   1.160 -21.705  1.00  0.00     0.083 C 
ATOM      2  C   UNL     1      -9.688  -0.211 -22.385  1.00  0.00     0.162 C 
ATOM      3  C   UNL     1      -9.023  -0.189 -23.774  1.00  0.00     0.246 C 
ATOM      4  C   UNL     1      -9.664   0.911 -24.645  1.00  0.00     0.223 C 
ATOM      5  C   UNL     1      -9.586   2.300 -23.998  1.00  0.00     0.097 C 
ATOM      6  C   UNL     1     -10.157   2.314 -22.576  1.00  0.00     0.168 C 
ENDROOT
BRANCH   2   7
ATOM      7  O   UNL     1     -11.041  -0.631 -22.508  1.00  0.00    -0.389 OA
ATOM      8  H   UNL     1     -11.394  -0.807 -21.617  1.00  0.00     0.211 HD
ENDBRANCH   2   7
BRANCH   6   9
ATOM      9  C   UNL     1     -11.697   2.389 -22.569  1.00  0.00     0.335 C 
ATOM     10  O   UNL     1     -12.391   3.048 -23.324  1.00  0.00    -0.249 OA
BRANCH   9  11
ATOM     11  O   UNL     1     -12.217   1.642 -21.556  1.00  0.00    -0.479 OA
ATOM     12  H   UNL     1     -13.141   1.945 -21.396  1.00  0.00     0.296 HD
ENDBRANCH   9  11
ENDBRANCH   6   9
BRANCH   6  13
ATOM     13  O   UNL     1      -9.737   3.539 -21.912  1.00  0.00    -0.378 OA
ATOM     14  H   UNL     1     -10.046   4.289 -22.459  1.00  0.00     0.212 HD
ENDBRANCH   6  13
BRANCH   3  15
ATOM     15  O   UNL     1      -7.613   0.075 -23.635  1.00  0.00    -0.452 OA
BRANCH  15  16
ATOM     16  C   UNL     1      -6.780  -0.919 -24.017  1.00  0.00     0.331 C 
ATOM     17  O   UNL     1      -6.756  -2.049 -23.554  1.00  0.00    -0.247 OA
BRANCH  16  18
ATOM     18  C   UNL     1      -5.865  -0.497 -25.096  1.00  0.00     0.094 C 
ATOM     19  C   UNL     1      -5.322  -1.333 -25.994  1.00  0.00     0.016 C 
BRANCH  19  20
ATOM     20  C   UNL     1      -4.370  -0.915 -27.033  1.00  0.00    -0.021 A 
ATOM     21  C   UNL     1      -3.705   0.320 -26.991  1.00  0.00     0.058 A 
ATOM     22  C   UNL     1      -4.161  -1.772 -28.127  1.00  0.00     0.012 A 
ATOM     23  C   UNL     1      -2.832   0.665 -28.019  1.00  0.00     0.157 A 
ATOM     24  C   UNL     1      -3.282  -1.419 -29.154  1.00  0.00     0.051 A 
ATOM     25  C   UNL     1      -2.622  -0.203 -29.088  1.00  0.00     0.157 A 
BRANCH  23  26
ATOM     26  O   UNL     1      -2.155   1.853 -28.026  1.00  0.00    -0.504 OA
ATOM     27  H   UNL     1      -1.950   2.084 -28.948  1.00  0.00     0.293 HD
ENDBRANCH  23  26
BRANCH  25  28
ATOM     28  O   UNL     1      -1.763   0.145 -30.090  1.00  0.00    -0.504 OA
ATOM     29  H   UNL     1      -1.722  -0.645 -30.664  1.00  0.00     0.293 HD
ENDBRANCH  25  28
ENDBRANCH  19  20
ENDBRANCH  16  18
ENDBRANCH  15  16
ENDBRANCH   3  15
BRANCH   4  30
ATOM     30  O   UNL     1      -9.181   0.860 -26.017  1.00  0.00    -0.455 OA
BRANCH  30  31
ATOM     31  C   UNL     1      -9.353  -0.223 -26.804  1.00  0.00     0.331 C 
ATOM     32  O   UNL     1     -10.149  -1.134 -26.662  1.00  0.00    -0.247 OA
BRANCH  31  33
ATOM     33  C   UNL     1      -8.383  -0.121 -27.916  1.00  0.00     0.094 C 
ATOM     34  C   UNL     1      -7.661   0.999 -28.069  1.00  0.00     0.016 C 
BRANCH  34  35
ATOM     35  C   UNL     1      -6.684   1.181 -29.147  1.00  0.00    -0.021 A 
ATOM     36  C   UNL     1      -5.866   2.320 -29.217  1.00  0.00     0.058 A 
ATOM     37  C   UNL     1      -6.605   0.212 -30.160  1.00  0.00     0.012 A 
ATOM     38  C   UNL     1      -4.976   2.461 -30.277  1.00  0.00     0.157 A 
ATOM     39  C   UNL     1      -5.704   0.359 -31.218  1.00  0.00     0.051 A 
ATOM     40  C   UNL     1      -4.896   1.484 -31.265  1.00  0.00     0.157 A 
BRANCH  38  41
ATOM     41  O   UNL     1      -4.158   3.551 -30.395  1.00  0.00    -0.504 OA
ATOM     42  H   UNL     1      -4.716   4.343 -30.479  1.00  0.00     0.293 HD
ENDBRANCH  38  41
BRANCH  40  43
ATOM     43  O   UNL     1      -4.019   1.631 -32.301  1.00  0.00    -0.504 OA
ATOM     44  H   UNL     1      -3.375   0.903 -32.183  1.00  0.00     0.293 HD
ENDBRANCH  40  43
ENDBRANCH  34  35
ENDBRANCH  31  33
ENDBRANCH  30  31
ENDBRANCH   4  30
TORSDOF 16
ENDMDL
MODEL 8
REMARK VINA RESULT:      -9.2      2.260      3.113
REMARK SMILES O=C(/C=C/c1ccc(O)c(O)c1)O[C@H]1[C@H](O)C[C@](O)(C(=O)O)C[C@H]1OC(=O)/C=C/c1ccc(O)c(O)c1
REMARK SMILES IDX 17 1 15 2 14 3 24 4 23 5 18 6 16 7 20 9 21 10 22 11 19 13
REMARK SMILES IDX 13 15 2 16 1 17 3 18 4 19 5 20 12 21 6 22 10 23 7 24 8 25
REMARK SMILES IDX 11 26 9 28 25 30 26 31 27 32 28 33 29 34 30 35 37 36 31 37
REMARK SMILES IDX 35 38 32 39 33 40 36 41 34 43
REMARK H PARENT 16 8 22 12 19 14 11 27 9 29 36 42 34 44
ROOT
ATOM      1  C   UNL     1     -10.567  -1.050 -22.157  1.00  0.00     0.083 C 
ATOM      2  C   UNL     1      -9.441  -0.013 -22.100  1.00  0.00     0.162 C 
ATOM      3  C   UNL     1      -8.501  -0.116 -23.315  1.00  0.00     0.246 C 
ATOM      4  C   UNL     1      -7.956  -1.554 -23.438  1.00  0.00     0.223 C 
ATOM      5  C   UNL     1      -9.072  -2.603 -23.541  1.00  0.00     0.097 C 
ATOM      6  C   UNL     1     -10.087  -2.489 -22.399  1.00  0.00     0.168 C 
ENDROOT
BRANCH   2   7
ATOM      7  O   UNL     1      -8.695  -0.191 -20.902  1.00  0.00    -0.389 OA
ATOM      8  H   UNL     1      -8.024   0.514 -20.847  1.00  0.00     0.211 HD
ENDBRANCH   2   7
BRANCH   6   9
ATOM      9  C   UNL     1      -9.577  -3.146 -21.100  1.00  0.00     0.335 C 
ATOM     10  O   UNL     1      -9.690  -2.698 -19.973  1.00  0.00    -0.249 OA
BRANCH   9  11
ATOM     11  O   UNL     1      -8.922  -4.310 -21.367  1.00  0.00    -0.479 OA
ATOM     12  H   UNL     1      -9.407  -4.775 -22.087  1.00  0.00     0.296 HD
ENDBRANCH   9  11
ENDBRANCH   6   9
BRANCH   6  13
ATOM     13  O   UNL     1     -11.274  -3.256 -22.745  1.00  0.00    -0.378 OA
ATOM     14  H   UNL     1     -11.195  -4.128 -22.309  1.00  0.00     0.212 HD
ENDBRANCH   6  13
BRANCH   3  15
ATOM     15  O   UNL     1      -9.220   0.225 -24.517  1.00  0.00    -0.452 OA
BRANCH  15  16
ATOM     16  C   UNL     1      -8.875   1.392 -25.107  1.00  0.00     0.331 C 
ATOM     17  O   UNL     1      -9.088   2.509 -24.662  1.00  0.00    -0.247 OA
BRANCH  16  18
ATOM     18  C   UNL     1      -8.182   1.183 -26.394  1.00  0.00     0.094 C 
ATOM     19  C   UNL     1      -7.410   2.103 -26.993  1.00  0.00     0.016 C 
BRANCH  19  20
ATOM     20  C   UNL     1      -6.767   1.908 -28.300  1.00  0.00    -0.021 A 
ATOM     21  C   UNL     1      -5.729   2.733 -28.759  1.00  0.00     0.058 A 
ATOM     22  C   UNL     1      -7.250   0.883 -29.133  1.00  0.00     0.012 A 
ATOM     23  C   UNL     1      -5.178   2.508 -30.018  1.00  0.00     0.157 A 
ATOM     24  C   UNL     1      -6.691   0.664 -30.395  1.00  0.00     0.051 A 
ATOM     25  C   UNL     1      -5.656   1.478 -30.824  1.00  0.00     0.157 A 
BRANCH  23  26
ATOM     26  O   UNL     1      -4.162   3.279 -30.512  1.00  0.00    -0.504 OA
ATOM     27  H   UNL     1      -3.381   3.153 -29.947  1.00  0.00     0.293 HD
ENDBRANCH  23  26
BRANCH  25  28
ATOM     28  O   UNL     1      -5.108   1.266 -32.055  1.00  0.00    -0.504 OA
ATOM     29  H   UNL     1      -5.272   2.097 -32.544  1.00  0.00     0.293 HD
ENDBRANCH  25  28
ENDBRANCH  19  20
ENDBRANCH  16  18
ENDBRANCH  15  16
ENDBRANCH   3  15
BRANCH   4  30
ATOM     30  O   UNL     1      -6.939  -1.656 -24.474  1.00  0.00    -0.455 OA
BRANCH  30  31
ATOM     31  C   UNL     1      -5.792  -0.945 -24.433  1.00  0.00     0.331 C 
ATOM     32  O   UNL     1      -5.313  -0.350 -23.486  1.00  0.00    -0.247 OA
BRANCH  31  33
ATOM     33  C   UNL     1      -5.184  -1.010 -25.779  1.00  0.00     0.094 C 
ATOM     34  C   UNL     1      -4.309  -0.068 -26.161  1.00  0.00     0.016 C 
BRANCH  34  35
ATOM     35  C   UNL     1      -3.667  -0.057 -27.480  1.00  0.00    -0.021 A 
ATOM     36  C   UNL     1      -4.023  -0.974 -28.481  1.00  0.00     0.058 A 
ATOM     37  C   UNL     1      -2.634   0.862 -27.722  1.00  0.00     0.012 A 
ATOM     38  C   UNL     1      -3.363  -0.944 -29.705  1.00  0.00     0.157 A 
ATOM     39  C   UNL     1      -1.979   0.890 -28.956  1.00  0.00     0.051 A 
ATOM     40  C   UNL     1      -2.352  -0.015 -29.938  1.00  0.00     0.157 A 
BRANCH  38  41
ATOM     41  O   UNL     1      -3.668  -1.815 -30.714  1.00  0.00    -0.504 OA
ATOM     42  H   UNL     1      -4.519  -2.237 -30.507  1.00  0.00     0.293 HD
ENDBRANCH  38  41
BRANCH  40  43
ATOM     43  O   UNL     1      -1.710   0.007 -31.142  1.00  0.00    -0.504 OA
ATOM     44  H   UNL     1      -1.680   0.954 -31.388  1.00  0.00     0.293 HD
ENDBRANCH  40  43
ENDBRANCH  34  35
ENDBRANCH  31  33
ENDBRANCH  30  31
ENDBRANCH   4  30
TORSDOF 16
ENDMDL
MODEL 9
REMARK VINA RESULT:      -9.0      2.446      4.425
REMARK SMILES O=C(/C=C/c1ccc(O)c(O)c1)O[C@H]1[C@H](O)C[C@](O)(C(=O)O)C[C@H]1OC(=O)/C=C/c1ccc(O)c(O)c1
REMARK SMILES IDX 17 1 15 2 14 3 24 4 23 5 18 6 16 7 20 9 21 10 22 11 19 13
REMARK SMILES IDX 13 15 2 16 1 17 3 18 4 19 5 20 12 21 6 22 10 23 7 24 8 25
REMARK SMILES IDX 11 26 9 28 25 30 26 31 27 32 28 33 29 34 30 35 37 36 31 37
REMARK SMILES IDX 35 38 32 39 33 40 36 41 34 43
REMARK H PARENT 16 8 22 12 19 14 11 27 9 29 36 42 34 44
ROOT
ATOM      1  C   UNL     1     -11.361  -1.085 -26.512  1.00  0.00     0.083 C 
ATOM      2  C   UNL     1     -10.022  -0.605 -27.081  1.00  0.00     0.162 C 
ATOM      3  C   UNL     1      -9.470  -1.570 -28.147  1.00  0.00     0.246 C 
ATOM      4  C   UNL     1      -9.374  -2.995 -27.566  1.00  0.00     0.223 C 
ATOM      5  C   UNL     1     -10.717  -3.509 -27.031  1.00  0.00     0.097 C 
ATOM      6  C   UNL     1     -11.354  -2.542 -26.028  1.00  0.00     0.168 C 
ENDROOT
BRANCH   2   7
ATOM      7  O   UNL     1      -9.080  -0.471 -26.023  1.00  0.00    -0.389 OA
ATOM      8  H   UNL     1      -8.896  -1.355 -25.657  1.00  0.00     0.211 HD
ENDBRANCH   2   7
BRANCH   6   9
ATOM      9  C   UNL     1     -10.735  -2.673 -24.621  1.00  0.00     0.335 C 
ATOM     10  O   UNL     1      -9.584  -2.980 -24.366  1.00  0.00    -0.249 OA
BRANCH   9  11
ATOM     11  O   UNL     1     -11.666  -2.440 -23.655  1.00  0.00    -0.479 OA
ATOM     12  H   UNL     1     -11.209  -2.033 -22.882  1.00  0.00     0.296 HD
ENDBRANCH   9  11
ENDBRANCH   6   9
BRANCH   6  13
ATOM     13  O   UNL     1     -12.750  -2.910 -25.839  1.00  0.00    -0.378 OA
ATOM     14  H   UNL     1     -13.287  -2.108 -25.995  1.00  0.00     0.212 HD
ENDBRANCH   6  13
BRANCH   3  15
ATOM     15  O   UNL     1     -10.345  -1.581 -29.293  1.00  0.00    -0.452 OA
BRANCH  15  16
ATOM     16  C   UNL     1     -10.079  -0.668 -30.254  1.00  0.00     0.331 C 
ATOM     17  O   UNL     1     -10.721  -0.500 -31.279  1.00  0.00    -0.247 OA
BRANCH  16  18
ATOM     18  C   UNL     1      -8.891   0.149 -29.934  1.00  0.00     0.094 C 
ATOM     19  C   UNL     1      -8.098   0.719 -30.854  1.00  0.00     0.016 C 
BRANCH  19  20
ATOM     20  C   UNL     1      -6.886   1.486 -30.530  1.00  0.00    -0.021 A 
ATOM     21  C   UNL     1      -6.817   2.356 -29.431  1.00  0.00     0.058 A 
ATOM     22  C   UNL     1      -5.778   1.371 -31.387  1.00  0.00     0.012 A 
ATOM     23  C   UNL     1      -5.646   3.070 -29.194  1.00  0.00     0.157 A 
ATOM     24  C   UNL     1      -4.606   2.091 -31.141  1.00  0.00     0.051 A 
ATOM     25  C   UNL     1      -4.550   2.932 -30.042  1.00  0.00     0.157 A 
BRANCH  23  26
ATOM     26  O   UNL     1      -5.524   3.928 -28.136  1.00  0.00    -0.504 OA
ATOM     27  H   UNL     1      -5.739   3.442 -27.321  1.00  0.00     0.293 HD
ENDBRANCH  23  26
BRANCH  25  28
ATOM     28  O   UNL     1      -3.407   3.637 -29.799  1.00  0.00    -0.504 OA
ATOM     29  H   UNL     1      -2.719   3.177 -30.320  1.00  0.00     0.293 HD
ENDBRANCH  25  28
ENDBRANCH  19  20
ENDBRANCH  16  18
ENDBRANCH  15  16
ENDBRANCH   3  15
BRANCH   4  30
ATOM     30  O   UNL     1      -8.706  -3.905 -28.484  1.00  0.00    -0.455 OA
BRANCH  30  31
ATOM     31  C   UNL     1      -7.912  -3.469 -29.485  1.00  0.00     0.331 C 
ATOM     32  O   UNL     1      -8.047  -3.648 -30.682  1.00  0.00    -0.247 OA
BRANCH  31  33
ATOM     33  C   UNL     1      -6.806  -2.704 -28.871  1.00  0.00     0.094 C 
ATOM     34  C   UNL     1      -5.893  -2.107 -29.652  1.00  0.00     0.016 C 
BRANCH  34  35
ATOM     35  C   UNL     1      -4.764  -1.336 -29.122  1.00  0.00    -0.021 A 
ATOM     36  C   UNL     1      -4.851  -0.647 -27.902  1.00  0.00     0.058 A 
ATOM     37  C   UNL     1      -3.588  -1.246 -29.883  1.00  0.00     0.012 A 
ATOM     38  C   UNL     1      -3.762   0.096 -27.456  1.00  0.00     0.157 A 
ATOM     39  C   UNL     1      -2.498  -0.502 -29.426  1.00  0.00     0.051 A 
ATOM     40  C   UNL     1      -2.596   0.163 -28.213  1.00  0.00     0.157 A 
BRANCH  38  41
ATOM     41  O   UNL     1      -3.793   0.788 -26.276  1.00  0.00    -0.504 OA
ATOM     42  H   UNL     1      -4.150   0.202 -25.587  1.00  0.00     0.293 HD
ENDBRANCH  38  41
BRANCH  40  43
ATOM     43  O   UNL     1      -1.533   0.894 -27.767  1.00  0.00    -0.504 OA
ATOM     44  H   UNL     1      -1.033   1.120 -28.576  1.00  0.00     0.293 HD
ENDBRANCH  40  43
ENDBRANCH  34  35
ENDBRANCH  31  33
ENDBRANCH  30  31
ENDBRANCH   4  30
TORSDOF 16
ENDMDL
MODEL 10
REMARK VINA RESULT:      -9.0      2.236      8.520
REMARK SMILES O=C(/C=C/c1ccc(O)c(O)c1)O[C@H]1[C@H](O)C[C@](O)(C(=O)O)C[C@H]1OC(=O)/C=C/c1ccc(O)c(O)c1
REMARK SMILES IDX 17 1 15 2 14 3 24 4 23 5 18 6 16 7 20 9 21 10 22 11 19 13
REMARK SMILES IDX 13 15 2 16 1 17 3 18 4 19 5 20 12 21 6 22 10 23 7 24 8 25
REMARK SMILES IDX 11 26 9 28 25 30 26 31 27 32 28 33 29 34 30 35 37 36 31 37
REMARK SMILES IDX 35 38 32 39 33 40 36 41 34 43
REMARK H PARENT 16 8 22 12 19 14 11 27 9 29 36 42 34 44
ROOT
ATOM      1  C   UNL     1      -3.627   0.082 -28.043  1.00  0.00     0.083 C 
ATOM      2  C   UNL     1      -4.442   1.373 -28.162  1.00  0.00     0.162 C 
ATOM      3  C   UNL     1      -5.933   1.091 -28.428  1.00  0.00     0.246 C 
ATOM      4  C   UNL     1      -6.084   0.194 -29.674  1.00  0.00     0.223 C 
ATOM      5  C   UNL     1      -5.308  -1.124 -29.553  1.00  0.00     0.097 C 
ATOM      6  C   UNL     1      -3.833  -0.903 -29.203  1.00  0.00     0.168 C 
ENDROOT
BRANCH   2   7
ATOM      7  O   UNL     1      -3.912   2.172 -29.213  1.00  0.00    -0.389 OA
ATOM      8  H   UNL     1      -2.956   2.288 -29.063  1.00  0.00     0.211 HD
ENDBRANCH   2   7
BRANCH   6   9
ATOM      9  C   UNL     1      -2.994  -0.514 -30.437  1.00  0.00     0.335 C 
ATOM     10  O   UNL     1      -3.179  -0.889 -31.582  1.00  0.00    -0.249 OA
BRANCH   9  11
ATOM     11  O   UNL     1      -1.955   0.293 -30.086  1.00  0.00    -0.479 OA
ATOM     12  H   UNL     1      -1.141  -0.047 -30.528  1.00  0.00     0.296 HD
ENDBRANCH   9  11
ENDBRANCH   6   9
BRANCH   6  13
ATOM     13  O   UNL     1      -3.258  -2.167 -28.765  1.00  0.00    -0.378 OA
ATOM     14  H   UNL     1      -2.361  -1.977 -28.425  1.00  0.00     0.212 HD
ENDBRANCH   6  13
BRANCH   3  15
ATOM     15  O   UNL     1      -6.512   0.424 -27.289  1.00  0.00    -0.452 OA
BRANCH  15  16
ATOM     16  C   UNL     1      -7.377   1.153 -26.548  1.00  0.00     0.331 C 
ATOM     17  O   UNL     1      -7.732   2.298 -26.783  1.00  0.00    -0.247 OA
BRANCH  16  18
ATOM     18  C   UNL     1      -7.881   0.403 -25.380  1.00  0.00     0.094 C 
ATOM     19  C   UNL     1      -7.537  -0.861 -25.090  1.00  0.00     0.016 C 
BRANCH  19  20
ATOM     20  C   UNL     1      -8.084  -1.619 -23.956  1.00  0.00    -0.021 A 
ATOM     21  C   UNL     1      -9.426  -2.027 -23.899  1.00  0.00     0.058 A 
ATOM     22  C   UNL     1      -7.234  -1.900 -22.872  1.00  0.00     0.012 A 
ATOM     23  C   UNL     1      -9.886  -2.723 -22.785  1.00  0.00     0.157 A 
ATOM     24  C   UNL     1      -7.704  -2.600 -21.757  1.00  0.00     0.051 A 
ATOM     25  C   UNL     1      -9.027  -3.009 -21.727  1.00  0.00     0.157 A 
BRANCH  23  26
ATOM     26  O   UNL     1     -11.182  -3.147 -22.681  1.00  0.00    -0.504 OA
ATOM     27  H   UNL     1     -11.213  -4.094 -22.899  1.00  0.00     0.293 HD
ENDBRANCH  23  26
BRANCH  25  28
ATOM     28  O   UNL     1      -9.489  -3.693 -20.640  1.00  0.00    -0.504 OA
ATOM     29  H   UNL     1      -9.276  -4.628 -20.829  1.00  0.00     0.293 HD
ENDBRANCH  25  28
ENDBRANCH  19  20
ENDBRANCH  16  18
ENDBRANCH  15  16
ENDBRANCH   3  15
BRANCH   4  30
ATOM     30  O   UNL     1      -7.478   0.037 -30.057  1.00  0.00    -0.455 OA
BRANCH  30  31
ATOM     31  C   UNL     1      -7.849  -0.573 -31.203  1.00  0.00     0.331 C 
ATOM     32  O   UNL     1      -7.518  -0.293 -32.342  1.00  0.00    -0.247 OA
BRANCH  31  33
ATOM     33  C   UNL     1      -8.757  -1.682 -30.842  1.00  0.00     0.094 C 
ATOM     34  C   UNL     1      -8.580  -2.338 -29.685  1.00  0.00     0.016 C 
BRANCH  34  35
ATOM     35  C   UNL     1      -9.433  -3.452 -29.257  1.00  0.00    -0.021 A 
ATOM     36  C   UNL     1      -9.990  -4.351 -30.179  1.00  0.00     0.058 A 
ATOM     37  C   UNL     1      -9.736  -3.585 -27.892  1.00  0.00     0.012 A 
ATOM     38  C   UNL     1     -10.818  -5.373 -29.725  1.00  0.00     0.157 A 
ATOM     39  C   UNL     1     -10.565  -4.618 -27.445  1.00  0.00     0.051 A 
ATOM     40  C   UNL     1     -11.098  -5.504 -28.367  1.00  0.00     0.157 A 
BRANCH  38  41
ATOM     41  O   UNL     1     -11.390  -6.275 -30.580  1.00  0.00    -0.504 OA
ATOM     42  H   UNL     1     -10.917  -6.234 -31.429  1.00  0.00     0.293 HD
ENDBRANCH  38  41
BRANCH  40  43
ATOM     43  O   UNL     1     -11.910  -6.510 -27.932  1.00  0.00    -0.504 OA
ATOM     44  H   UNL     1     -12.607  -6.577 -28.616  1.00  0.00     0.293 HD
ENDBRANCH  40  43
ENDBRANCH  34  35
ENDBRANCH  31  33
ENDBRANCH  30  31
ENDBRANCH   4  30
TORSDOF 16
ENDMDL
