MODEL 1
REMARK VINA RESULT:      -8.4      0.000      0.000
REMARK SMILES O=C(/C=C/c1ccc(O)c(O)c1)O[C@@H]1C[C@](O)(C(=O)O)C[C@@H](O)[C@H]1O
REMARK SMILES IDX 2 1 1 2 13 3 14 4 21 5 22 6 16 7 24 8 15 9 23 10 17 12 18 14
REMARK SMILES IDX 19 15 20 16 25 18 3 20 4 21 5 22 12 23 6 24 10 25 7 26 8 27
REMARK SMILES IDX 11 28 9 30
REMARK H PARENT 23 11 17 13 20 17 25 19 11 29 9 31
ROOT
ATOM      1  C   UNL     1      -5.027   3.077 -30.370  1.00  0.00     0.331 C 
ATOM      2  O   UNL     1      -4.875   4.282 -30.515  1.00  0.00    -0.247 OA
ENDROOT
BRANCH   1   3
ATOM      3  O   UNL     1      -4.074   2.202 -29.972  1.00  0.00    -0.456 OA
BRANCH   3   4
ATOM      4  C   UNL     1      -4.543   0.882 -29.624  1.00  0.00     0.211 C 
ATOM      5  C   UNL     1      -4.011  -1.691 -28.228  1.00  0.00     0.082 C 
ATOM      6  C   UNL     1      -3.893  -1.580 -29.748  1.00  0.00     0.150 C 
ATOM      7  C   UNL     1      -4.984  -0.653 -27.654  1.00  0.00     0.167 C 
ATOM      8  C   UNL     1      -3.561  -0.151 -30.209  1.00  0.00     0.184 C 
ATOM      9  C   UNL     1      -4.614   0.761 -28.098  1.00  0.00     0.095 C 
BRANCH   6  10
ATOM     10  O   UNL     1      -5.110  -1.997 -30.388  1.00  0.00    -0.390 OA
ATOM     11  H   UNL     1      -5.805  -1.335 -30.190  1.00  0.00     0.211 HD
ENDBRANCH   6  10
BRANCH   7  12
ATOM     12  O   UNL     1      -6.311  -0.975 -28.127  1.00  0.00    -0.378 OA
ATOM     13  H   UNL     1      -6.287  -0.950 -29.107  1.00  0.00     0.212 HD
ENDBRANCH   7  12
BRANCH   7  14
ATOM     14  C   UNL     1      -4.975  -0.766 -26.121  1.00  0.00     0.335 C 
ATOM     15  O   UNL     1      -5.435  -1.698 -25.483  1.00  0.00    -0.249 OA
BRANCH  14  16
ATOM     16  O   UNL     1      -4.406   0.322 -25.544  1.00  0.00    -0.479 OA
ATOM     17  H   UNL     1      -3.674   0.653 -26.112  1.00  0.00     0.296 HD
ENDBRANCH  14  16
ENDBRANCH   7  14
BRANCH   8  18
ATOM     18  O   UNL     1      -3.614  -0.107 -31.641  1.00  0.00    -0.387 OA
ATOM     19  H   UNL     1      -4.550  -0.274 -31.879  1.00  0.00     0.211 HD
ENDBRANCH   8  18
ENDBRANCH   3   4
ENDBRANCH   1   3
BRANCH   1  20
ATOM     20  C   UNL     1      -6.308   2.405 -30.666  1.00  0.00     0.094 C 
ATOM     21  C   UNL     1      -6.705   2.047 -31.897  1.00  0.00     0.016 C 
BRANCH  21  22
ATOM     22  C   UNL     1      -7.979   1.369 -32.168  1.00  0.00    -0.021 A 
ATOM     23  C   UNL     1      -8.911   1.106 -31.151  1.00  0.00     0.058 A 
ATOM     24  C   UNL     1      -8.293   1.028 -33.493  1.00  0.00     0.012 A 
ATOM     25  C   UNL     1     -10.118   0.490 -31.469  1.00  0.00     0.157 A 
ATOM     26  C   UNL     1      -9.507   0.407 -33.803  1.00  0.00     0.051 A 
ATOM     27  C   UNL     1     -10.408   0.142 -32.784  1.00  0.00     0.157 A 
BRANCH  25  28
ATOM     28  O   UNL     1     -11.060   0.210 -30.517  1.00  0.00    -0.504 OA
ATOM     29  H   UNL     1     -11.919   0.537 -30.831  1.00  0.00     0.293 HD
ENDBRANCH  25  28
BRANCH  27  30
ATOM     30  O   UNL     1     -11.595  -0.460 -33.086  1.00  0.00    -0.504 OA
ATOM     31  H   UNL     1     -11.342  -1.277 -33.561  1.00  0.00     0.293 HD
ENDBRANCH  27  30
ENDBRANCH  21  22
ENDBRANCH   1  20
TORSDOF 11
ENDMDL
MODEL 2
REMARK VINA RESULT:      -8.1      1.724      4.187
REMARK SMILES O=C(/C=C/c1ccc(O)c(O)c1)O[C@@H]1C[C@](O)(C(=O)O)C[C@@H](O)[C@H]1O
REMARK SMILES IDX 2 1 1 2 13 3 14 4 21 5 22 6 16 7 24 8 15 9 23 10 17 12 18 14
REMARK SMILES IDX 19 15 20 16 25 18 3 20 4 21 5 22 12 23 6 24 10 25 7 26 8 27
REMARK SMILES IDX 11 28 9 30
REMARK H PARENT 23 11 17 13 20 17 25 19 11 29 9 31
ROOT
ATOM      1  C   UNL     1      -6.946  -1.146 -27.070  1.00  0.00     0.331 C 
ATOM      2  O   UNL     1      -7.459  -1.363 -25.981  1.00  0.00    -0.247 OA
ENDROOT
BRANCH   1   3
ATOM      3  O   UNL     1      -5.682  -1.474 -27.428  1.00  0.00    -0.456 OA
BRANCH   3   4
ATOM      4  C   UNL     1      -4.878  -0.394 -27.947  1.00  0.00     0.211 C 
ATOM      5  C   UNL     1      -2.185   0.572 -28.761  1.00  0.00     0.082 C 
ATOM      6  C   UNL     1      -2.804   0.996 -27.430  1.00  0.00     0.150 C 
ATOM      7  C   UNL     1      -3.256   0.211 -29.799  1.00  0.00     0.167 C 
ATOM      8  C   UNL     1      -3.811  -0.037 -26.895  1.00  0.00     0.184 C 
ATOM      9  C   UNL     1      -4.222  -0.841 -29.258  1.00  0.00     0.095 C 
BRANCH   6  10
ATOM     10  O   UNL     1      -3.471   2.262 -27.555  1.00  0.00    -0.390 OA
ATOM     11  H   UNL     1      -3.239   2.812 -26.778  1.00  0.00     0.211 HD
ENDBRANCH   6  10
BRANCH   7  12
ATOM     12  O   UNL     1      -3.986   1.414 -30.126  1.00  0.00    -0.378 OA
ATOM     13  H   UNL     1      -3.817   1.611 -31.072  1.00  0.00     0.212 HD
ENDBRANCH   7  12
BRANCH   7  14
ATOM     14  C   UNL     1      -2.556  -0.292 -31.072  1.00  0.00     0.335 C 
ATOM     15  O   UNL     1      -3.052  -1.043 -31.895  1.00  0.00    -0.249 OA
BRANCH  14  16
ATOM     16  O   UNL     1      -1.290   0.186 -31.169  1.00  0.00    -0.479 OA
ATOM     17  H   UNL     1      -0.884   0.230 -30.273  1.00  0.00     0.296 HD
ENDBRANCH  14  16
ENDBRANCH   7  14
BRANCH   8  18
ATOM     18  O   UNL     1      -4.447   0.504 -25.729  1.00  0.00    -0.387 OA
ATOM     19  H   UNL     1      -5.163  -0.124 -25.500  1.00  0.00     0.211 HD
ENDBRANCH   8  18
ENDBRANCH   3   4
ENDBRANCH   1   3
BRANCH   1  20
ATOM     20  C   UNL     1      -7.661  -0.433 -28.148  1.00  0.00     0.094 C 
ATOM     21  C   UNL     1      -8.121  -1.021 -29.264  1.00  0.00     0.016 C 
BRANCH  21  22
ATOM     22  C   UNL     1      -8.841  -0.296 -30.319  1.00  0.00    -0.021 A 
ATOM     23  C   UNL     1      -9.960  -0.844 -30.965  1.00  0.00     0.058 A 
ATOM     24  C   UNL     1      -8.427   1.006 -30.645  1.00  0.00     0.012 A 
ATOM     25  C   UNL     1     -10.625  -0.099 -31.935  1.00  0.00     0.157 A 
ATOM     26  C   UNL     1      -9.100   1.745 -31.622  1.00  0.00     0.051 A 
ATOM     27  C   UNL     1     -10.194   1.182 -32.260  1.00  0.00     0.157 A 
BRANCH  25  28
ATOM     28  O   UNL     1     -11.720  -0.587 -32.596  1.00  0.00    -0.504 OA
ATOM     29  H   UNL     1     -12.267  -1.079 -31.960  1.00  0.00     0.293 HD
ENDBRANCH  25  28
BRANCH  27  30
ATOM     30  O   UNL     1     -10.854   1.905 -33.212  1.00  0.00    -0.504 OA
ATOM     31  H   UNL     1     -11.474   2.467 -32.706  1.00  0.00     0.293 HD
ENDBRANCH  27  30
ENDBRANCH  21  22
ENDBRANCH   1  20
TORSDOF 11
ENDMDL
MODEL 3
REMARK VINA RESULT:      -7.9      3.902      5.225
REMARK SMILES O=C(/C=C/c1ccc(O)c(O)c1)O[C@@H]1C[C@](O)(C(=O)O)C[C@@H](O)[C@H]1O
REMARK SMILES IDX 2 1 1 2 13 3 14 4 21 5 22 6 16 7 24 8 15 9 23 10 17 12 18 14
REMARK SMILES IDX 19 15 20 16 25 18 3 20 4 21 5 22 12 23 6 24 10 25 7 26 8 27
REMARK SMILES IDX 11 28 9 30
REMARK H PARENT 23 11 17 13 20 17 25 19 11 29 9 31
ROOT
ATOM      1  C   UNL     1      -6.943  -1.045 -31.032  1.00  0.00     0.331 C 
ATOM      2  O   UNL     1      -7.104  -0.249 -31.947  1.00  0.00    -0.247 OA
ENDROOT
BRANCH   1   3
ATOM      3  O   UNL     1      -5.773  -1.299 -30.401  1.00  0.00    -0.456 OA
BRANCH   3   4
ATOM      4  C   UNL     1      -5.519  -0.518 -29.214  1.00  0.00     0.211 C 
ATOM      5  C   UNL     1      -3.516   0.728 -27.401  1.00  0.00     0.082 C 
ATOM      6  C   UNL     1      -4.234  -0.564 -27.013  1.00  0.00     0.150 C 
ATOM      7  C   UNL     1      -4.346   1.570 -28.379  1.00  0.00     0.167 C 
ATOM      8  C   UNL     1      -4.691  -1.374 -28.238  1.00  0.00     0.184 C 
ATOM      9  C   UNL     1      -4.758   0.754 -29.604  1.00  0.00     0.095 C 
BRANCH   6  10
ATOM     10  O   UNL     1      -5.382  -0.286 -26.194  1.00  0.00    -0.390 OA
ATOM     11  H   UNL     1      -5.723  -1.134 -25.842  1.00  0.00     0.211 HD
ENDBRANCH   6  10
BRANCH   7  12
ATOM     12  O   UNL     1      -5.528   2.028 -27.686  1.00  0.00    -0.378 OA
ATOM     13  H   UNL     1      -5.685   1.413 -26.937  1.00  0.00     0.212 HD
ENDBRANCH   7  12
BRANCH   7  14
ATOM     14  C   UNL     1      -3.521   2.798 -28.793  1.00  0.00     0.335 C 
ATOM     15  O   UNL     1      -2.747   3.401 -28.068  1.00  0.00    -0.249 OA
BRANCH  14  16
ATOM     16  O   UNL     1      -3.771   3.159 -30.077  1.00  0.00    -0.479 OA
ATOM     17  H   UNL     1      -4.739   3.114 -30.251  1.00  0.00     0.296 HD
ENDBRANCH  14  16
ENDBRANCH   7  14
BRANCH   8  18
ATOM     18  O   UNL     1      -5.477  -2.485 -27.787  1.00  0.00    -0.387 OA
ATOM     19  H   UNL     1      -6.354  -2.114 -27.553  1.00  0.00     0.211 HD
ENDBRANCH   8  18
ENDBRANCH   3   4
ENDBRANCH   1   3
BRANCH   1  20
ATOM     20  C   UNL     1      -8.044  -1.885 -30.518  1.00  0.00     0.094 C 
ATOM     21  C   UNL     1      -7.881  -3.126 -30.032  1.00  0.00     0.016 C 
BRANCH  21  22
ATOM     22  C   UNL     1      -8.988  -3.941 -29.515  1.00  0.00    -0.021 A 
ATOM     23  C   UNL     1      -9.752  -4.770 -30.352  1.00  0.00     0.058 A 
ATOM     24  C   UNL     1      -9.247  -3.929 -28.136  1.00  0.00     0.012 A 
ATOM     25  C   UNL     1     -10.768  -5.548 -29.804  1.00  0.00     0.157 A 
ATOM     26  C   UNL     1     -10.272  -4.711 -27.595  1.00  0.00     0.051 A 
ATOM     27  C   UNL     1     -11.025  -5.513 -28.437  1.00  0.00     0.157 A 
BRANCH  25  28
ATOM     28  O   UNL     1     -11.543  -6.372 -30.574  1.00  0.00    -0.504 OA
ATOM     29  H   UNL     1     -12.466  -6.075 -30.507  1.00  0.00     0.293 HD
ENDBRANCH  25  28
BRANCH  27  30
ATOM     30  O   UNL     1     -12.024  -6.279 -27.910  1.00  0.00    -0.504 OA
ATOM     31  H   UNL     1     -11.735  -7.200 -28.068  1.00  0.00     0.293 HD
ENDBRANCH  27  30
ENDBRANCH  21  22
ENDBRANCH   1  20
TORSDOF 11
ENDMDL
MODEL 4
REMARK VINA RESULT:      -7.9      4.070      6.505
REMARK SMILES O=C(/C=C/c1ccc(O)c(O)c1)O[C@@H]1C[C@](O)(C(=O)O)C[C@@H](O)[C@H]1O
REMARK SMILES IDX 2 1 1 2 13 3 14 4 21 5 22 6 16 7 24 8 15 9 23 10 17 12 18 14
REMARK SMILES IDX 19 15 20 16 25 18 3 20 4 21 5 22 12 23 6 24 10 25 7 26 8 27
REMARK SMILES IDX 11 28 9 30
REMARK H PARENT 23 11 17 13 20 17 25 19 11 29 9 31
ROOT
ATOM      1  C   UNL     1      -6.084  -2.100 -29.700  1.00  0.00     0.331 C 
ATOM      2  O   UNL     1      -5.029  -1.907 -29.111  1.00  0.00    -0.247 OA
ENDROOT
BRANCH   1   3
ATOM      3  O   UNL     1      -6.372  -1.692 -30.959  1.00  0.00    -0.456 OA
BRANCH   3   4
ATOM      4  C   UNL     1      -7.018  -0.406 -31.067  1.00  0.00     0.211 C 
ATOM      5  C   UNL     1      -7.951   1.800 -32.831  1.00  0.00     0.082 C 
ATOM      6  C   UNL     1      -6.677   1.942 -31.999  1.00  0.00     0.150 C 
ATOM      7  C   UNL     1      -8.935   0.805 -32.203  1.00  0.00     0.167 C 
ATOM      8  C   UNL     1      -6.020   0.585 -31.695  1.00  0.00     0.184 C 
ATOM      9  C   UNL     1      -8.269  -0.545 -31.942  1.00  0.00     0.095 C 
BRANCH   6  10
ATOM     10  O   UNL     1      -6.949   2.609 -30.756  1.00  0.00    -0.390 OA
ATOM     11  H   UNL     1      -6.237   2.382 -30.122  1.00  0.00     0.211 HD
ENDBRANCH   6  10
BRANCH   7  12
ATOM     12  O   UNL     1      -9.400   1.363 -30.953  1.00  0.00    -0.378 OA
ATOM     13  H   UNL     1      -9.663   0.613 -30.378  1.00  0.00     0.212 HD
ENDBRANCH   7  12
BRANCH   7  14
ATOM     14  C   UNL     1     -10.142   0.647 -33.141  1.00  0.00     0.335 C 
ATOM     15  O   UNL     1     -10.308  -0.274 -33.923  1.00  0.00    -0.249 OA
BRANCH  14  16
ATOM     16  O   UNL     1     -11.010   1.682 -33.016  1.00  0.00    -0.479 OA
ATOM     17  H   UNL     1     -10.580   2.513 -33.321  1.00  0.00     0.296 HD
ENDBRANCH  14  16
ENDBRANCH   7  14
BRANCH   8  18
ATOM     18  O   UNL     1      -4.924   0.798 -30.794  1.00  0.00    -0.387 OA
ATOM     19  H   UNL     1      -4.770   1.766 -30.785  1.00  0.00     0.211 HD
ENDBRANCH   8  18
ENDBRANCH   3   4
ENDBRANCH   1   3
BRANCH   1  20
ATOM     20  C   UNL     1      -7.225  -2.790 -29.065  1.00  0.00     0.094 C 
ATOM     21  C   UNL     1      -8.058  -3.620 -29.712  1.00  0.00     0.016 C 
BRANCH  21  22
ATOM     22  C   UNL     1      -9.180  -4.306 -29.059  1.00  0.00    -0.021 A 
ATOM     23  C   UNL     1      -9.672  -3.899 -27.808  1.00  0.00     0.058 A 
ATOM     24  C   UNL     1      -9.811  -5.362 -29.736  1.00  0.00     0.012 A 
ATOM     25  C   UNL     1     -10.760  -4.563 -27.250  1.00  0.00     0.157 A 
ATOM     26  C   UNL     1     -10.901  -6.025 -29.166  1.00  0.00     0.051 A 
ATOM     27  C   UNL     1     -11.365  -5.619 -27.924  1.00  0.00     0.157 A 
BRANCH  25  28
ATOM     28  O   UNL     1     -11.278  -4.208 -26.034  1.00  0.00    -0.504 OA
ATOM     29  H   UNL     1     -10.945  -3.324 -25.806  1.00  0.00     0.293 HD
ENDBRANCH  25  28
BRANCH  27  30
ATOM     30  O   UNL     1     -12.432  -6.264 -27.368  1.00  0.00    -0.504 OA
ATOM     31  H   UNL     1     -12.993  -6.512 -28.130  1.00  0.00     0.293 HD
ENDBRANCH  27  30
ENDBRANCH  21  22
ENDBRANCH   1  20
TORSDOF 11
ENDMDL
MODEL 5
REMARK VINA RESULT:      -7.8      5.433      7.196
REMARK SMILES O=C(/C=C/c1ccc(O)c(O)c1)O[C@@H]1C[C@](O)(C(=O)O)C[C@@H](O)[C@H]1O
REMARK SMILES IDX 2 1 1 2 13 3 14 4 21 5 22 6 16 7 24 8 15 9 23 10 17 12 18 14
REMARK SMILES IDX 19 15 20 16 25 18 3 20 4 21 5 22 12 23 6 24 10 25 7 26 8 27
REMARK SMILES IDX 11 28 9 30
REMARK H PARENT 23 11 17 13 20 17 25 19 11 29 9 31
ROOT
ATOM      1  C   UNL     1      -9.835  -5.025 -29.880  1.00  0.00     0.331 C 
ATOM      2  O   UNL     1     -10.444  -5.889 -30.496  1.00  0.00    -0.247 OA
ENDROOT
BRANCH   1   3
ATOM      3  O   UNL     1      -9.531  -5.059 -28.562  1.00  0.00    -0.456 OA
BRANCH   3   4
ATOM      4  C   UNL     1     -10.623  -4.781 -27.660  1.00  0.00     0.211 C 
ATOM      5  C   UNL     1     -11.604  -4.672 -24.854  1.00  0.00     0.082 C 
ATOM      6  C   UNL     1     -11.993  -5.824 -25.780  1.00  0.00     0.150 C 
ATOM      7  C   UNL     1     -11.275  -3.396 -25.639  1.00  0.00     0.167 C 
ATOM      8  C   UNL     1     -10.948  -6.070 -26.882  1.00  0.00     0.184 C 
ATOM      9  C   UNL     1     -10.210  -3.657 -26.703  1.00  0.00     0.095 C 
BRANCH   6  10
ATOM     10  O   UNL     1     -13.264  -5.575 -26.401  1.00  0.00    -0.390 OA
ATOM     11  H   UNL     1     -13.105  -5.236 -27.307  1.00  0.00     0.211 HD
ENDBRANCH   6  10
BRANCH   7  12
ATOM     12  O   UNL     1     -12.488  -2.934 -26.273  1.00  0.00    -0.378 OA
ATOM     13  H   UNL     1     -13.232  -3.142 -25.669  1.00  0.00     0.212 HD
ENDBRANCH   7  12
BRANCH   7  14
ATOM     14  C   UNL     1     -10.805  -2.318 -24.649  1.00  0.00     0.335 C 
ATOM     15  O   UNL     1      -9.715  -1.771 -24.671  1.00  0.00    -0.249 OA
BRANCH  14  16
ATOM     16  O   UNL     1     -11.752  -2.051 -23.714  1.00  0.00    -0.479 OA
ATOM     17  H   UNL     1     -12.238  -1.231 -23.961  1.00  0.00     0.296 HD
ENDBRANCH  14  16
ENDBRANCH   7  14
BRANCH   8  18
ATOM     18  O   UNL     1     -11.459  -7.061 -27.785  1.00  0.00    -0.387 OA
ATOM     19  H   UNL     1     -11.331  -7.922 -27.336  1.00  0.00     0.211 HD
ENDBRANCH   8  18
ENDBRANCH   3   4
ENDBRANCH   1   3
BRANCH   1  20
ATOM     20  C   UNL     1      -9.381  -3.775 -30.522  1.00  0.00     0.094 C 
ATOM     21  C   UNL     1     -10.187  -2.740 -30.810  1.00  0.00     0.016 C 
BRANCH  21  22
ATOM     22  C   UNL     1      -9.713  -1.500 -31.438  1.00  0.00    -0.021 A 
ATOM     23  C   UNL     1     -10.600  -0.500 -31.868  1.00  0.00     0.058 A 
ATOM     24  C   UNL     1      -8.330  -1.290 -31.556  1.00  0.00     0.012 A 
ATOM     25  C   UNL     1     -10.095   0.670 -32.427  1.00  0.00     0.157 A 
ATOM     26  C   UNL     1      -7.832  -0.112 -32.121  1.00  0.00     0.051 A 
ATOM     27  C   UNL     1      -8.723   0.858 -32.554  1.00  0.00     0.157 A 
BRANCH  25  28
ATOM     28  O   UNL     1     -10.915   1.675 -32.863  1.00  0.00    -0.504 OA
ATOM     29  H   UNL     1     -11.635   1.784 -32.219  1.00  0.00     0.293 HD
ENDBRANCH  25  28
BRANCH  27  30
ATOM     30  O   UNL     1      -8.238   2.010 -33.102  1.00  0.00    -0.504 OA
ATOM     31  H   UNL     1      -7.880   1.737 -33.970  1.00  0.00     0.293 HD
ENDBRANCH  27  30
ENDBRANCH  21  22
ENDBRANCH   1  20
TORSDOF 11
ENDMDL
MODEL 6
REMARK VINA RESULT:      -7.8      3.661      4.823
REMARK SMILES O=C(/C=C/c1ccc(O)c(O)c1)O[C@@H]1C[C@](O)(C(=O)O)C[C@@H](O)[C@H]1O
REMARK SMILES IDX 2 1 1 2 13 3 14 4 21 5 22 6 16 7 24 8 15 9 23 10 17 12 18 14
REMARK SMILES IDX 19 15 20 16 25 18 3 20 4 21 5 22 12 23 6 24 10 25 7 26 8 27
REMARK SMILES IDX 11 28 9 30
REMARK H PARENT 23 11 17 13 20 17 25 19 11 29 9 31
ROOT
ATOM      1  C   UNL     1      -6.933  -0.294 -31.495  1.00  0.00     0.331 C 
ATOM      2  O   UNL     1      -7.755   0.423 -32.049  1.00  0.00    -0.247 OA
ENDROOT
BRANCH   1   3
ATOM      3  O   UNL     1      -5.588  -0.156 -31.564  1.00  0.00    -0.456 OA
BRANCH   3   4
ATOM      4  C   UNL     1      -4.919   0.085 -30.307  1.00  0.00     0.211 C 
ATOM      5  C   UNL     1      -2.487   1.056 -28.898  1.00  0.00     0.082 C 
ATOM      6  C   UNL     1      -2.768  -0.439 -29.043  1.00  0.00     0.150 C 
ATOM      7  C   UNL     1      -3.776   1.886 -28.937  1.00  0.00     0.167 C 
ATOM      8  C   UNL     1      -3.630  -0.757 -30.277  1.00  0.00     0.184 C 
ATOM      9  C   UNL     1      -4.597   1.578 -30.189  1.00  0.00     0.095 C 
BRANCH   6  10
ATOM     10  O   UNL     1      -3.433  -0.951 -27.877  1.00  0.00    -0.390 OA
ATOM     11  H   UNL     1      -2.769  -1.058 -27.164  1.00  0.00     0.211 HD
ENDBRANCH   6  10
BRANCH   7  12
ATOM     12  O   UNL     1      -4.552   1.566 -27.761  1.00  0.00    -0.378 OA
ATOM     13  H   UNL     1      -4.428   0.610 -27.580  1.00  0.00     0.212 HD
ENDBRANCH   7  12
BRANCH   7  14
ATOM     14  C   UNL     1      -3.404   3.376 -28.881  1.00  0.00     0.335 C 
ATOM     15  O   UNL     1      -2.858   3.929 -27.940  1.00  0.00    -0.249 OA
BRANCH  14  16
ATOM     16  O   UNL     1      -3.778   4.028 -30.011  1.00  0.00    -0.479 OA
ATOM     17  H   UNL     1      -3.538   4.980 -29.938  1.00  0.00     0.296 HD
ENDBRANCH  14  16
ENDBRANCH   7  14
BRANCH   8  18
ATOM     18  O   UNL     1      -3.966  -2.151 -30.255  1.00  0.00    -0.387 OA
ATOM     19  H   UNL     1      -4.171  -2.391 -31.182  1.00  0.00     0.211 HD
ENDBRANCH   8  18
ENDBRANCH   3   4
ENDBRANCH   1   3
BRANCH   1  20
ATOM     20  C   UNL     1      -7.330  -1.467 -30.690  1.00  0.00     0.094 C 
ATOM     21  C   UNL     1      -8.594  -1.902 -30.563  1.00  0.00     0.016 C 
BRANCH  21  22
ATOM     22  C   UNL     1      -8.965  -3.078 -29.767  1.00  0.00    -0.021 A 
ATOM     23  C   UNL     1      -9.361  -2.970 -28.423  1.00  0.00     0.058 A 
ATOM     24  C   UNL     1      -8.979  -4.336 -30.389  1.00  0.00     0.012 A 
ATOM     25  C   UNL     1      -9.736  -4.114 -27.725  1.00  0.00     0.157 A 
ATOM     26  C   UNL     1      -9.355  -5.480 -29.678  1.00  0.00     0.051 A 
ATOM     27  C   UNL     1      -9.728  -5.357 -28.349  1.00  0.00     0.157 A 
BRANCH  25  28
ATOM     28  O   UNL     1     -10.128  -4.065 -26.415  1.00  0.00    -0.504 OA
ATOM     29  H   UNL     1     -10.577  -3.216 -26.262  1.00  0.00     0.293 HD
ENDBRANCH  25  28
BRANCH  27  30
ATOM     30  O   UNL     1     -10.098  -6.473 -27.656  1.00  0.00    -0.504 OA
ATOM     31  H   UNL     1      -9.673  -6.369 -26.781  1.00  0.00     0.293 HD
ENDBRANCH  27  30
ENDBRANCH  21  22
ENDBRANCH   1  20
TORSDOF 11
ENDMDL
MODEL 7
REMARK VINA RESULT:      -7.7      2.135      4.312
REMARK SMILES O=C(/C=C/c1ccc(O)c(O)c1)O[C@@H]1C[C@](O)(C(=O)O)C[C@@H](O)[C@H]1O
REMARK SMILES IDX 2 1 1 2 13 3 14 4 21 5 22 6 16 7 24 8 15 9 23 10 17 12 18 14
REMARK SMILES IDX 19 15 20 16 25 18 3 20 4 21 5 22 12 23 6 24 10 25 7 26 8 27
REMARK SMILES IDX 11 28 9 30
REMARK H PARENT 23 11 17 13 20 17 25 19 11 29 9 31
ROOT
ATOM      1  C   UNL     1      -7.379  -3.035 -28.485  1.00  0.00     0.331 C 
ATOM      2  O   UNL     1      -8.064  -3.990 -28.146  1.00  0.00    -0.247 OA
ENDROOT
BRANCH   1   3
ATOM      3  O   UNL     1      -6.071  -2.854 -28.187  1.00  0.00    -0.456 OA
BRANCH   3   4
ATOM      4  C   UNL     1      -5.688  -1.506 -27.843  1.00  0.00     0.211 C 
ATOM      5  C   UNL     1      -3.747   0.289 -26.479  1.00  0.00     0.082 C 
ATOM      6  C   UNL     1      -5.104  -0.028 -25.850  1.00  0.00     0.150 C 
ATOM      7  C   UNL     1      -3.783   0.159 -28.007  1.00  0.00     0.167 C 
ATOM      8  C   UNL     1      -5.661  -1.386 -26.308  1.00  0.00     0.184 C 
ATOM      9  C   UNL     1      -4.306  -1.211 -28.437  1.00  0.00     0.095 C 
BRANCH   6  10
ATOM     10  O   UNL     1      -6.066   0.992 -26.167  1.00  0.00    -0.390 OA
ATOM     11  H   UNL     1      -5.850   1.793 -25.647  1.00  0.00     0.211 HD
ENDBRANCH   6  10
BRANCH   7  12
ATOM     12  O   UNL     1      -4.651   1.191 -28.525  1.00  0.00    -0.378 OA
ATOM     13  H   UNL     1      -5.047   1.654 -27.756  1.00  0.00     0.212 HD
ENDBRANCH   7  12
BRANCH   7  14
ATOM     14  C   UNL     1      -2.366   0.399 -28.554  1.00  0.00     0.335 C 
ATOM     15  O   UNL     1      -1.979   0.080 -29.666  1.00  0.00    -0.249 OA
BRANCH  14  16
ATOM     16  O   UNL     1      -1.571   1.000 -27.633  1.00  0.00    -0.479 OA
ATOM     17  H   UNL     1      -1.806   0.678 -26.733  1.00  0.00     0.296 HD
ENDBRANCH  14  16
ENDBRANCH   7  14
BRANCH   8  18
ATOM     18  O   UNL     1      -6.990  -1.535 -25.791  1.00  0.00    -0.387 OA
ATOM     19  H   UNL     1      -7.006  -1.037 -24.947  1.00  0.00     0.211 HD
ENDBRANCH   8  18
ENDBRANCH   3   4
ENDBRANCH   1   3
BRANCH   1  20
ATOM     20  C   UNL     1      -7.934  -1.903 -29.255  1.00  0.00     0.094 C 
ATOM     21  C   UNL     1      -7.958  -1.844 -30.596  1.00  0.00     0.016 C 
BRANCH  21  22
ATOM     22  C   UNL     1      -8.525  -0.714 -31.342  1.00  0.00    -0.021 A 
ATOM     23  C   UNL     1      -9.459  -0.901 -32.375  1.00  0.00     0.058 A 
ATOM     24  C   UNL     1      -8.164   0.590 -30.969  1.00  0.00     0.012 A 
ATOM     25  C   UNL     1      -9.991   0.208 -33.027  1.00  0.00     0.157 A 
ATOM     26  C   UNL     1      -8.702   1.698 -31.632  1.00  0.00     0.051 A 
ATOM     27  C   UNL     1      -9.610   1.494 -32.658  1.00  0.00     0.157 A 
BRANCH  25  28
ATOM     28  O   UNL     1     -10.902   0.082 -34.040  1.00  0.00    -0.504 OA
ATOM     29  H   UNL     1     -11.767  -0.125 -33.649  1.00  0.00     0.293 HD
ENDBRANCH  25  28
BRANCH  27  30
ATOM     30  O   UNL     1     -10.139   2.575 -33.304  1.00  0.00    -0.504 OA
ATOM     31  H   UNL     1      -9.799   2.504 -34.218  1.00  0.00     0.293 HD
ENDBRANCH  27  30
ENDBRANCH  21  22
ENDBRANCH   1  20
TORSDOF 11
ENDMDL
MODEL 8
REMARK VINA RESULT:      -7.6      2.783      7.106
REMARK SMILES O=C(/C=C/c1ccc(O)c(O)c1)O[C@@H]1C[C@](O)(C(=O)O)C[C@@H](O)[C@H]1O
REMARK SMILES IDX 2 1 1 2 13 3 14 4 21 5 22 6 16 7 24 8 15 9 23 10 17 12 18 14
REMARK SMILES IDX 19 15 20 16 25 18 3 20 4 21 5 22 12 23 6 24 10 25 7 26 8 27
REMARK SMILES IDX 11 28 9 30
REMARK H PARENT 23 11 17 13 20 17 25 19 11 29 9 31
ROOT
ATOM      1  C   UNL     1      -8.210  -1.348 -26.360  1.00  0.00     0.331 C 
ATOM      2  O   UNL     1      -8.130  -1.466 -25.145  1.00  0.00    -0.247 OA
ENDROOT
BRANCH   1   3
ATOM      3  O   UNL     1      -9.300  -1.632 -27.112  1.00  0.00    -0.456 OA
BRANCH   3   4
ATOM      4  C   UNL     1      -9.048  -1.868 -28.513  1.00  0.00     0.211 C 
ATOM      5  C   UNL     1     -10.141  -2.636 -31.171  1.00  0.00     0.082 C 
ATOM      6  C   UNL     1      -9.330  -3.627 -30.337  1.00  0.00     0.150 C 
ATOM      7  C   UNL     1      -9.779  -1.182 -30.842  1.00  0.00     0.167 C 
ATOM      8  C   UNL     1      -9.411  -3.331 -28.830  1.00  0.00     0.184 C 
ATOM      9  C   UNL     1      -9.901  -0.904 -29.345  1.00  0.00     0.095 C 
BRANCH   6  10
ATOM     10  O   UNL     1      -7.948  -3.617 -30.731  1.00  0.00    -0.390 OA
ATOM     11  H   UNL     1      -7.755  -2.756 -31.157  1.00  0.00     0.211 HD
ENDBRANCH   6  10
BRANCH   7  12
ATOM     12  O   UNL     1      -8.416  -0.954 -31.266  1.00  0.00    -0.378 OA
ATOM     13  H   UNL     1      -8.041  -0.260 -30.682  1.00  0.00     0.212 HD
ENDBRANCH   7  12
BRANCH   7  14
ATOM     14  C   UNL     1     -10.699  -0.252 -31.648  1.00  0.00     0.335 C 
ATOM     15  O   UNL     1     -11.507  -0.616 -32.486  1.00  0.00    -0.249 OA
BRANCH  14  16
ATOM     16  O   UNL     1     -10.492   1.052 -31.332  1.00  0.00    -0.479 OA
ATOM     17  H   UNL     1     -10.816   1.625 -32.064  1.00  0.00     0.296 HD
ENDBRANCH  14  16
ENDBRANCH   7  14
BRANCH   8  18
ATOM     18  O   UNL     1      -8.511  -4.210 -28.140  1.00  0.00    -0.387 OA
ATOM     19  H   UNL     1      -9.037  -4.623 -27.424  1.00  0.00     0.211 HD
ENDBRANCH   8  18
ENDBRANCH   3   4
ENDBRANCH   1   3
BRANCH   1  20
ATOM     20  C   UNL     1      -7.067  -0.907 -27.184  1.00  0.00     0.094 C 
ATOM     21  C   UNL     1      -5.824  -1.402 -27.075  1.00  0.00     0.016 C 
BRANCH  21  22
ATOM     22  C   UNL     1      -4.703  -0.958 -27.913  1.00  0.00    -0.021 A 
ATOM     23  C   UNL     1      -3.643  -0.196 -27.392  1.00  0.00     0.058 A 
ATOM     24  C   UNL     1      -4.667  -1.357 -29.258  1.00  0.00     0.012 A 
ATOM     25  C   UNL     1      -2.589   0.169 -28.223  1.00  0.00     0.157 A 
ATOM     26  C   UNL     1      -3.604  -0.982 -30.086  1.00  0.00     0.051 A 
ATOM     27  C   UNL     1      -2.575  -0.219 -29.559  1.00  0.00     0.157 A 
BRANCH  25  28
ATOM     28  O   UNL     1      -1.533   0.911 -27.768  1.00  0.00    -0.504 OA
ATOM     29  H   UNL     1      -0.715   0.543 -28.144  1.00  0.00     0.293 HD
ENDBRANCH  25  28
BRANCH  27  30
ATOM     30  O   UNL     1      -1.535   0.144 -30.366  1.00  0.00    -0.504 OA
ATOM     31  H   UNL     1      -0.779  -0.387 -30.045  1.00  0.00     0.293 HD
ENDBRANCH  27  30
ENDBRANCH  21  22
ENDBRANCH   1  20
TORSDOF 11
ENDMDL
MODEL 9
REMARK VINA RESULT:      -7.6      1.202      2.918
REMARK SMILES O=C(/C=C/c1ccc(O)c(O)c1)O[C@@H]1C[C@](O)(C(=O)O)C[C@@H](O)[C@H]1O
REMARK SMILES IDX 2 1 1 2 13 3 14 4 21 5 22 6 16 7 24 8 15 9 23 10 17 12 18 14
REMARK SMILES IDX 19 15 20 16 25 18 3 20 4 21 5 22 12 23 6 24 10 25 7 26 8 27
REMARK SMILES IDX 11 28 9 30
REMARK H PARENT 23 11 17 13 20 17 25 19 11 29 9 31
ROOT
ATOM      1  C   UNL     1      -5.350   3.491 -29.900  1.00  0.00     0.331 C 
ATOM      2  O   UNL     1      -4.663   4.186 -30.637  1.00  0.00    -0.247 OA
ENDROOT
BRANCH   1   3
ATOM      3  O   UNL     1      -5.069   3.187 -28.611  1.00  0.00    -0.456 OA
BRANCH   3   4
ATOM      4  C   UNL     1      -4.493   1.883 -28.387  1.00  0.00     0.211 C 
ATOM      5  C   UNL     1      -4.408  -0.993 -29.141  1.00  0.00     0.082 C 
ATOM      6  C   UNL     1      -5.125  -0.533 -27.873  1.00  0.00     0.150 C 
ATOM      7  C   UNL     1      -3.291  -0.024 -29.550  1.00  0.00     0.167 C 
ATOM      8  C   UNL     1      -5.621   0.920 -27.974  1.00  0.00     0.184 C 
ATOM      9  C   UNL     1      -3.816   1.406 -29.677  1.00  0.00     0.095 C 
BRANCH   6  10
ATOM     10  O   UNL     1      -4.264  -0.644 -26.728  1.00  0.00    -0.390 OA
ATOM     11  H   UNL     1      -4.746  -1.127 -26.025  1.00  0.00     0.211 HD
ENDBRANCH   6  10
BRANCH   7  12
ATOM     12  O   UNL     1      -2.263  -0.071 -28.535  1.00  0.00    -0.378 OA
ATOM     13  H   UNL     1      -1.557   0.554 -28.805  1.00  0.00     0.212 HD
ENDBRANCH   7  12
BRANCH   7  14
ATOM     14  C   UNL     1      -2.684  -0.504 -30.878  1.00  0.00     0.335 C 
ATOM     15  O   UNL     1      -3.071  -1.466 -31.519  1.00  0.00    -0.249 OA
BRANCH  14  16
ATOM     16  O   UNL     1      -1.633   0.268 -31.254  1.00  0.00    -0.479 OA
ATOM     17  H   UNL     1      -1.108   0.521 -30.461  1.00  0.00     0.296 HD
ENDBRANCH  14  16
ENDBRANCH   7  14
BRANCH   8  18
ATOM     18  O   UNL     1      -6.147   1.315 -26.699  1.00  0.00    -0.387 OA
ATOM     19  H   UNL     1      -5.785   2.208 -26.526  1.00  0.00     0.211 HD
ENDBRANCH   8  18
ENDBRANCH   3   4
ENDBRANCH   1   3
BRANCH   1  20
ATOM     20  C   UNL     1      -6.593   2.843 -30.365  1.00  0.00     0.094 C 
ATOM     21  C   UNL     1      -6.691   2.125 -31.495  1.00  0.00     0.016 C 
BRANCH  21  22
ATOM     22  C   UNL     1      -7.934   1.478 -31.933  1.00  0.00    -0.021 A 
ATOM     23  C   UNL     1      -8.951   1.135 -31.027  1.00  0.00     0.058 A 
ATOM     24  C   UNL     1      -8.130   1.252 -33.304  1.00  0.00     0.012 A 
ATOM     25  C   UNL     1     -10.124   0.554 -31.501  1.00  0.00     0.157 A 
ATOM     26  C   UNL     1      -9.310   0.665 -33.771  1.00  0.00     0.051 A 
ATOM     27  C   UNL     1     -10.297   0.320 -32.861  1.00  0.00     0.157 A 
BRANCH  25  28
ATOM     28  O   UNL     1     -11.145   0.200 -30.662  1.00  0.00    -0.504 OA
ATOM     29  H   UNL     1     -11.984   0.296 -31.144  1.00  0.00     0.293 HD
ENDBRANCH  25  28
BRANCH  27  30
ATOM     30  O   UNL     1     -11.451  -0.249 -33.316  1.00  0.00    -0.504 OA
ATOM     31  H   UNL     1     -11.796  -0.750 -32.550  1.00  0.00     0.293 HD
ENDBRANCH  27  30
ENDBRANCH  21  22
ENDBRANCH   1  20
TORSDOF 11
ENDMDL
MODEL 10
REMARK VINA RESULT:      -7.6      4.821      8.128
REMARK SMILES O=C(/C=C/c1ccc(O)c(O)c1)O[C@@H]1C[C@](O)(C(=O)O)C[C@@H](O)[C@H]1O
REMARK SMILES IDX 2 1 1 2 13 3 14 4 21 5 22 6 16 7 24 8 15 9 23 10 17 12 18 14
REMARK SMILES IDX 19 15 20 16 25 18 3 20 4 21 5 22 12 23 6 24 10 25 7 26 8 27
REMARK SMILES IDX 11 28 9 30
REMARK H PARENT 23 11 17 13 20 17 25 19 11 29 9 31
ROOT
ATOM      1  C   UNL     1      -8.040  -1.014 -25.864  1.00  0.00     0.331 C 
ATOM      2  O   UNL     1      -7.924  -1.060 -24.647  1.00  0.00    -0.247 OA
ENDROOT
BRANCH   1   3
ATOM      3  O   UNL     1      -9.155  -1.327 -26.565  1.00  0.00    -0.456 OA
BRANCH   3   4
ATOM      4  C   UNL     1      -9.914  -2.448 -26.064  1.00  0.00     0.211 C 
ATOM      5  C   UNL     1     -12.382  -4.099 -26.247  1.00  0.00     0.082 C 
ATOM      6  C   UNL     1     -12.204  -3.070 -25.132  1.00  0.00     0.150 C 
ATOM      7  C   UNL     1     -11.034  -4.610 -26.773  1.00  0.00     0.167 C 
ATOM      8  C   UNL     1     -11.262  -1.923 -25.535  1.00  0.00     0.184 C 
ATOM      9  C   UNL     1     -10.130  -3.455 -27.200  1.00  0.00     0.095 C 
BRANCH   6  10
ATOM     10  O   UNL     1     -11.688  -3.689 -23.942  1.00  0.00    -0.390 OA
ATOM     11  H   UNL     1     -12.107  -3.263 -23.166  1.00  0.00     0.211 HD
ENDBRANCH   6  10
BRANCH   7  12
ATOM     12  O   UNL     1     -10.395  -5.357 -25.714  1.00  0.00    -0.378 OA
ATOM     13  H   UNL     1      -9.771  -5.987 -26.136  1.00  0.00     0.212 HD
ENDBRANCH   7  12
BRANCH   7  14
ATOM     14  C   UNL     1     -11.295  -5.564 -27.950  1.00  0.00     0.335 C 
ATOM     15  O   UNL     1     -10.869  -5.415 -29.083  1.00  0.00    -0.249 OA
BRANCH  14  16
ATOM     16  O   UNL     1     -12.088  -6.603 -27.584  1.00  0.00    -0.479 OA
ATOM     17  H   UNL     1     -12.910  -6.260 -27.166  1.00  0.00     0.296 HD
ENDBRANCH  14  16
ENDBRANCH   7  14
BRANCH   8  18
ATOM     18  O   UNL     1     -11.037  -1.090 -24.390  1.00  0.00    -0.387 OA
ATOM     19  H   UNL     1     -10.241  -1.452 -23.948  1.00  0.00     0.211 HD
ENDBRANCH   8  18
ENDBRANCH   3   4
ENDBRANCH   1   3
BRANCH   1  20
ATOM     20  C   UNL     1      -6.918  -0.638 -26.747  1.00  0.00     0.094 C 
ATOM     21  C   UNL     1      -5.682  -1.154 -26.656  1.00  0.00     0.016 C 
BRANCH  21  22
ATOM     22  C   UNL     1      -4.582  -0.775 -27.552  1.00  0.00    -0.021 A 
ATOM     23  C   UNL     1      -3.562   0.101 -27.146  1.00  0.00     0.058 A 
ATOM     24  C   UNL     1      -4.523  -1.354 -28.830  1.00  0.00     0.012 A 
ATOM     25  C   UNL     1      -2.525   0.400 -28.025  1.00  0.00     0.157 A 
ATOM     26  C   UNL     1      -3.479  -1.046 -29.706  1.00  0.00     0.051 A 
ATOM     27  C   UNL     1      -2.489  -0.168 -29.294  1.00  0.00     0.157 A 
BRANCH  25  28
ATOM     28  O   UNL     1      -1.508   1.248 -27.681  1.00  0.00    -0.504 OA
ATOM     29  H   UNL     1      -1.395   1.215 -26.716  1.00  0.00     0.293 HD
ENDBRANCH  25  28
BRANCH  27  30
ATOM     30  O   UNL     1      -1.467   0.131 -30.148  1.00  0.00    -0.504 OA
ATOM     31  H   UNL     1      -0.969  -0.706 -30.238  1.00  0.00     0.293 HD
ENDBRANCH  27  30
ENDBRANCH  21  22
ENDBRANCH   1  20
TORSDOF 11
ENDMDL
