MODEL 1
REMARK VINA RESULT:      -6.9      0.000      0.000
REMARK SMILES OC=CC=C(O)c1ccc(O)cc1
REMARK SMILES IDX 4 1 5 2 3 3 2 4 1 5 7 7 8 8 13 9 9 10 12 11 10 12 11 13 6 15
REMARK H PARENT 1 6 11 14 6 16
ROOT
ATOM      1  C   UNL     1      -4.313  -9.541 -27.577  1.00  0.00     0.050 C 
ATOM      2  C   UNL     1      -3.015  -9.236 -27.760  1.00  0.00     0.122 C 
ENDROOT
BRANCH   1   3
ATOM      3  C   UNL     1      -4.827 -10.683 -26.846  1.00  0.00     0.042 C 
ATOM      4  C   UNL     1      -5.692 -10.558 -25.833  1.00  0.00     0.183 C 
BRANCH   4   5
ATOM      5  O   UNL     1      -6.208 -11.607 -25.121  1.00  0.00    -0.516 OA
ATOM      6  H   UNL     1      -6.690 -11.258 -24.351  1.00  0.00     0.292 HD
ENDBRANCH   4   5
ENDBRANCH   1   3
BRANCH   2   7
ATOM      7  C   UNL     1      -1.891 -10.016 -27.226  1.00  0.00     0.017 A 
ATOM      8  C   UNL     1      -1.569 -11.258 -27.790  1.00  0.00     0.016 A 
ATOM      9  C   UNL     1      -1.132  -9.532 -26.153  1.00  0.00     0.016 A 
ATOM     10  C   UNL     1      -0.510 -12.014 -27.281  1.00  0.00     0.047 A 
ATOM     11  C   UNL     1      -0.074 -10.286 -25.643  1.00  0.00     0.047 A 
ATOM     12  C   UNL     1       0.228 -11.520 -26.209  1.00  0.00     0.115 A 
BRANCH  12  13
ATOM     13  O   UNL     1       1.269 -12.223 -25.679  1.00  0.00    -0.508 OA
ATOM     14  H   UNL     1       1.902 -11.594 -25.296  1.00  0.00     0.293 HD
ENDBRANCH  12  13
ENDBRANCH   2   7
BRANCH   2  15
ATOM     15  O   UNL     1      -2.614  -8.144 -28.501  1.00  0.00    -0.507 OA
ATOM     16  H   UNL     1      -3.206  -8.051 -29.265  1.00  0.00     0.293 HD
ENDBRANCH   2  15
TORSDOF 5
ENDMDL
MODEL 2
REMARK VINA RESULT:      -6.3     15.799     17.995
REMARK SMILES OC=CC=C(O)c1ccc(O)cc1
REMARK SMILES IDX 4 1 5 2 3 3 2 4 1 5 7 7 8 8 13 9 9 10 12 11 10 12 11 13 6 15
REMARK H PARENT 1 6 11 14 6 16
ROOT
ATOM      1  C   UNL     1       9.059   1.264 -15.939  1.00  0.00     0.050 C 
ATOM      2  C   UNL     1       7.917   1.167 -16.645  1.00  0.00     0.122 C 
ENDROOT
BRANCH   1   3
ATOM      3  C   UNL     1      10.010   0.197 -15.701  1.00  0.00     0.042 C 
ATOM      4  C   UNL     1      11.122   0.372 -14.977  1.00  0.00     0.183 C 
BRANCH   4   5
ATOM      5  O   UNL     1      12.042  -0.608 -14.721  1.00  0.00    -0.516 OA
ATOM      6  H   UNL     1      12.935  -0.230 -14.805  1.00  0.00     0.292 HD
ENDBRANCH   4   5
ENDBRANCH   1   3
BRANCH   2   7
ATOM      7  C   UNL     1       7.452  -0.055 -17.314  1.00  0.00     0.017 A 
ATOM      8  C   UNL     1       6.587  -0.933 -16.647  1.00  0.00     0.016 A 
ATOM      9  C   UNL     1       7.866  -0.357 -18.618  1.00  0.00     0.016 A 
ATOM     10  C   UNL     1       6.149  -2.105 -17.269  1.00  0.00     0.047 A 
ATOM     11  C   UNL     1       7.429  -1.527 -19.241  1.00  0.00     0.047 A 
ATOM     12  C   UNL     1       6.576  -2.392 -18.562  1.00  0.00     0.115 A 
BRANCH  12  13
ATOM     13  O   UNL     1       6.176  -3.524 -19.208  1.00  0.00    -0.508 OA
ATOM     14  H   UNL     1       5.499  -3.964 -18.667  1.00  0.00     0.293 HD
ENDBRANCH  12  13
ENDBRANCH   2   7
BRANCH   2  15
ATOM     15  O   UNL     1       7.051   2.230 -16.793  1.00  0.00    -0.507 OA
ATOM     16  H   UNL     1       7.570   3.037 -16.939  1.00  0.00     0.293 HD
ENDBRANCH   2  15
TORSDOF 5
ENDMDL
MODEL 3
REMARK VINA RESULT:      -5.8     10.296     12.759
REMARK SMILES OC=CC=C(O)c1ccc(O)cc1
REMARK SMILES IDX 4 1 5 2 3 3 2 4 1 5 7 7 8 8 13 9 9 10 12 11 10 12 11 13 6 15
REMARK H PARENT 1 6 11 14 6 16
ROOT
ATOM      1  C   UNL     1      -8.469  -3.613 -30.139  1.00  0.00     0.050 C 
ATOM      2  C   UNL     1      -8.057  -2.352 -30.362  1.00  0.00     0.122 C 
ENDROOT
BRANCH   1   3
ATOM      3  C   UNL     1      -9.750  -4.175 -30.522  1.00  0.00     0.042 C 
ATOM      4  C   UNL     1     -10.171  -5.368 -30.089  1.00  0.00     0.183 C 
BRANCH   4   5
ATOM      5  O   UNL     1     -11.373  -5.932 -30.419  1.00  0.00    -0.516 OA
ATOM      6  H   UNL     1     -11.994  -5.225 -30.667  1.00  0.00     0.292 HD
ENDBRANCH   4   5
ENDBRANCH   1   3
BRANCH   2   7
ATOM      7  C   UNL     1      -8.848  -1.326 -31.055  1.00  0.00     0.017 A 
ATOM      8  C   UNL     1      -8.742  -1.180 -32.444  1.00  0.00     0.016 A 
ATOM      9  C   UNL     1      -9.709  -0.484 -30.339  1.00  0.00     0.016 A 
ATOM     10  C   UNL     1      -9.479  -0.199 -33.111  1.00  0.00     0.047 A 
ATOM     11  C   UNL     1     -10.447   0.496 -31.004  1.00  0.00     0.047 A 
ATOM     12  C   UNL     1     -10.325   0.633 -32.383  1.00  0.00     0.115 A 
BRANCH  12  13
ATOM     13  O   UNL     1     -11.062   1.605 -32.991  1.00  0.00    -0.508 OA
ATOM     14  H   UNL     1     -11.735   1.179 -33.548  1.00  0.00     0.293 HD
ENDBRANCH  12  13
ENDBRANCH   2   7
BRANCH   2  15
ATOM     15  O   UNL     1      -6.830  -1.892 -29.931  1.00  0.00    -0.507 OA
ATOM     16  H   UNL     1      -6.822  -0.923 -29.993  1.00  0.00     0.293 HD
ENDBRANCH   2  15
TORSDOF 5
ENDMDL
MODEL 4
REMARK VINA RESULT:      -5.8      1.886      2.424
REMARK SMILES OC=CC=C(O)c1ccc(O)cc1
REMARK SMILES IDX 4 1 5 2 3 3 2 4 1 5 7 7 8 8 13 9 9 10 12 11 10 12 11 13 6 15
REMARK H PARENT 1 6 11 14 6 16
ROOT
ATOM      1  C   UNL     1      -1.551  -8.468 -27.486  1.00  0.00     0.050 C 
ATOM      2  C   UNL     1      -0.293  -8.890 -27.262  1.00  0.00     0.122 C 
ENDROOT
BRANCH   1   3
ATOM      3  C   UNL     1      -2.766  -9.160 -27.101  1.00  0.00     0.042 C 
ATOM      4  C   UNL     1      -3.662  -9.592 -27.996  1.00  0.00     0.183 C 
BRANCH   4   5
ATOM      5  O   UNL     1      -4.816 -10.255 -27.678  1.00  0.00    -0.516 OA
ATOM      6  H   UNL     1      -5.197  -9.856 -26.876  1.00  0.00     0.292 HD
ENDBRANCH   4   5
ENDBRANCH   1   3
BRANCH   2   7
ATOM      7  C   UNL     1       0.059 -10.135 -26.566  1.00  0.00     0.017 A 
ATOM      8  C   UNL     1      -0.324 -11.370 -27.103  1.00  0.00     0.016 A 
ATOM      9  C   UNL     1       0.774 -10.101 -25.362  1.00  0.00     0.016 A 
ATOM     10  C   UNL     1      -0.007 -12.559 -26.442  1.00  0.00     0.047 A 
ATOM     11  C   UNL     1       1.093 -11.288 -24.700  1.00  0.00     0.047 A 
ATOM     12  C   UNL     1       0.699 -12.506 -25.243  1.00  0.00     0.115 A 
BRANCH  12  13
ATOM     13  O   UNL     1       1.029 -13.640 -24.562  1.00  0.00    -0.508 OA
ATOM     14  H   UNL     1       1.978 -13.808 -24.686  1.00  0.00     0.293 HD
ENDBRANCH  12  13
ENDBRANCH   2   7
BRANCH   2  15
ATOM     15  O   UNL     1       0.808  -8.181 -27.695  1.00  0.00    -0.507 OA
ATOM     16  H   UNL     1       0.979  -8.407 -28.623  1.00  0.00     0.293 HD
ENDBRANCH   2  15
TORSDOF 5
ENDMDL
MODEL 5
REMARK VINA RESULT:      -5.6     11.425     13.651
REMARK SMILES OC=CC=C(O)c1ccc(O)cc1
REMARK SMILES IDX 4 1 5 2 3 3 2 4 1 5 7 7 8 8 13 9 9 10 12 11 10 12 11 13 6 15
REMARK H PARENT 1 6 11 14 6 16
ROOT
ATOM      1  C   UNL     1      -3.415  -0.193 -28.360  1.00  0.00     0.050 C 
ATOM      2  C   UNL     1      -4.074   0.892 -27.911  1.00  0.00     0.122 C 
ENDROOT
BRANCH   1   3
ATOM      3  C   UNL     1      -2.738  -0.313 -29.636  1.00  0.00     0.042 C 
ATOM      4  C   UNL     1      -3.372  -0.679 -30.756  1.00  0.00     0.183 C 
BRANCH   4   5
ATOM      5  O   UNL     1      -2.775  -0.798 -31.981  1.00  0.00    -0.516 OA
ATOM      6  H   UNL     1      -3.220  -0.200 -32.607  1.00  0.00     0.292 HD
ENDBRANCH   4   5
ENDBRANCH   1   3
BRANCH   2   7
ATOM      7  C   UNL     1      -4.201   2.156 -28.648  1.00  0.00     0.017 A 
ATOM      8  C   UNL     1      -5.264   2.342 -29.541  1.00  0.00     0.016 A 
ATOM      9  C   UNL     1      -3.266   3.183 -28.470  1.00  0.00     0.016 A 
ATOM     10  C   UNL     1      -5.387   3.535 -30.258  1.00  0.00     0.047 A 
ATOM     11  C   UNL     1      -3.387   4.376 -29.184  1.00  0.00     0.047 A 
ATOM     12  C   UNL     1      -4.444   4.542 -30.073  1.00  0.00     0.115 A 
BRANCH  12  13
ATOM     13  O   UNL     1      -4.523   5.722 -30.751  1.00  0.00    -0.508 OA
ATOM     14  H   UNL     1      -3.876   6.340 -30.371  1.00  0.00     0.293 HD
ENDBRANCH  12  13
ENDBRANCH   2   7
BRANCH   2  15
ATOM     15  O   UNL     1      -4.721   0.907 -26.693  1.00  0.00    -0.507 OA
ATOM     16  H   UNL     1      -5.675   0.812 -26.846  1.00  0.00     0.293 HD
ENDBRANCH   2  15
TORSDOF 5
ENDMDL
MODEL 6
REMARK VINA RESULT:      -5.6     12.279     14.334
REMARK SMILES OC=CC=C(O)c1ccc(O)cc1
REMARK SMILES IDX 4 1 5 2 3 3 2 4 1 5 7 7 8 8 13 9 9 10 12 11 10 12 11 13 6 15
REMARK H PARENT 1 6 11 14 6 16
ROOT
ATOM      1  C   UNL     1      -4.766   4.734 -29.409  1.00  0.00     0.050 C 
ATOM      2  C   UNL     1      -5.021   3.456 -29.076  1.00  0.00     0.122 C 
ENDROOT
BRANCH   1   3
ATOM      3  C   UNL     1      -3.918   5.181 -30.497  1.00  0.00     0.042 C 
ATOM      4  C   UNL     1      -2.957   6.098 -30.330  1.00  0.00     0.183 C 
BRANCH   4   5
ATOM      5  O   UNL     1      -2.130   6.543 -31.325  1.00  0.00    -0.516 OA
ATOM      6  H   UNL     1      -1.390   7.031 -30.924  1.00  0.00     0.292 HD
ENDBRANCH   4   5
ENDBRANCH   1   3
BRANCH   2   7
ATOM      7  C   UNL     1      -4.485   2.286 -29.784  1.00  0.00     0.017 A 
ATOM      8  C   UNL     1      -3.428   1.554 -29.227  1.00  0.00     0.016 A 
ATOM      9  C   UNL     1      -5.018   1.892 -31.018  1.00  0.00     0.016 A 
ATOM     10  C   UNL     1      -2.902   0.448 -29.899  1.00  0.00     0.047 A 
ATOM     11  C   UNL     1      -4.493   0.787 -31.690  1.00  0.00     0.047 A 
ATOM     12  C   UNL     1      -3.439   0.075 -31.128  1.00  0.00     0.115 A 
BRANCH  12  13
ATOM     13  O   UNL     1      -2.957  -0.996 -31.819  1.00  0.00    -0.508 OA
ATOM     14  H   UNL     1      -2.732  -1.696 -31.184  1.00  0.00     0.293 HD
ENDBRANCH  12  13
ENDBRANCH   2   7
BRANCH   2  15
ATOM     15  O   UNL     1      -5.817   3.121 -28.000  1.00  0.00    -0.507 OA
ATOM     16  H   UNL     1      -5.962   2.161 -28.007  1.00  0.00     0.293 HD
ENDBRANCH   2  15
TORSDOF 5
ENDMDL
MODEL 7
REMARK VINA RESULT:      -5.6     10.067     12.041
REMARK SMILES OC=CC=C(O)c1ccc(O)cc1
REMARK SMILES IDX 4 1 5 2 3 3 2 4 1 5 7 7 8 8 13 9 9 10 12 11 10 12 11 13 6 15
REMARK H PARENT 1 6 11 14 6 16
ROOT
ATOM      1  C   UNL     1      -3.537  -1.760 -29.818  1.00  0.00     0.050 C 
ATOM      2  C   UNL     1      -3.392  -0.596 -30.478  1.00  0.00     0.122 C 
ENDROOT
BRANCH   1   3
ATOM      3  C   UNL     1      -3.895  -1.911 -28.421  1.00  0.00     0.042 C 
ATOM      4  C   UNL     1      -5.162  -2.050 -28.014  1.00  0.00     0.183 C 
BRANCH   4   5
ATOM      5  O   UNL     1      -5.543  -2.203 -26.709  1.00  0.00    -0.516 OA
ATOM      6  H   UNL     1      -5.787  -1.332 -26.349  1.00  0.00     0.292 HD
ENDBRANCH   4   5
ENDBRANCH   1   3
BRANCH   2   7
ATOM      7  C   UNL     1      -3.591   0.731 -29.883  1.00  0.00     0.017 A 
ATOM      8  C   UNL     1      -2.756   1.166 -28.845  1.00  0.00     0.016 A 
ATOM      9  C   UNL     1      -4.613   1.573 -30.340  1.00  0.00     0.016 A 
ATOM     10  C   UNL     1      -2.945   2.422 -28.263  1.00  0.00     0.047 A 
ATOM     11  C   UNL     1      -4.803   2.828 -29.760  1.00  0.00     0.047 A 
ATOM     12  C   UNL     1      -3.971   3.242 -28.726  1.00  0.00     0.115 A 
BRANCH  12  13
ATOM     13  O   UNL     1      -4.193   4.474 -28.186  1.00  0.00    -0.508 OA
ATOM     14  H   UNL     1      -3.687   4.544 -27.360  1.00  0.00     0.293 HD
ENDBRANCH  12  13
ENDBRANCH   2   7
BRANCH   2  15
ATOM     15  O   UNL     1      -3.015  -0.545 -31.804  1.00  0.00    -0.507 OA
ATOM     16  H   UNL     1      -3.788  -0.305 -32.339  1.00  0.00     0.293 HD
ENDBRANCH   2  15
TORSDOF 5
ENDMDL
MODEL 8
REMARK VINA RESULT:      -5.5     10.425     13.270
REMARK SMILES OC=CC=C(O)c1ccc(O)cc1
REMARK SMILES IDX 4 1 5 2 3 3 2 4 1 5 7 7 8 8 13 9 9 10 12 11 10 12 11 13 6 15
REMARK H PARENT 1 6 11 14 6 16
ROOT
ATOM      1  C   UNL     1      -7.082  -2.520 -29.995  1.00  0.00     0.050 C 
ATOM      2  C   UNL     1      -8.180  -2.618 -30.766  1.00  0.00     0.122 C 
ENDROOT
BRANCH   1   3
ATOM      3  C   UNL     1      -6.427  -1.291 -29.592  1.00  0.00     0.042 C 
ATOM      4  C   UNL     1      -5.260  -0.893 -30.112  1.00  0.00     0.183 C 
BRANCH   4   5
ATOM      5  O   UNL     1      -4.611   0.261 -29.767  1.00  0.00    -0.516 OA
ATOM      6  H   UNL     1      -3.770   0.307 -30.256  1.00  0.00     0.292 HD
ENDBRANCH   4   5
ENDBRANCH   1   3
BRANCH   2   7
ATOM      7  C   UNL     1      -8.915  -1.473 -31.321  1.00  0.00     0.017 A 
ATOM      8  C   UNL     1      -9.869  -0.809 -30.540  1.00  0.00     0.016 A 
ATOM      9  C   UNL     1      -8.673  -1.037 -32.630  1.00  0.00     0.016 A 
ATOM     10  C   UNL     1     -10.584   0.273 -31.064  1.00  0.00     0.047 A 
ATOM     11  C   UNL     1      -9.385   0.043 -33.154  1.00  0.00     0.047 A 
ATOM     12  C   UNL     1     -10.335   0.688 -32.369  1.00  0.00     0.115 A 
BRANCH  12  13
ATOM     13  O   UNL     1     -11.008   1.737 -32.921  1.00  0.00    -0.508 OA
ATOM     14  H   UNL     1     -11.956   1.524 -32.930  1.00  0.00     0.293 HD
ENDBRANCH  12  13
ENDBRANCH   2   7
BRANCH   2  15
ATOM     15  O   UNL     1      -8.718  -3.835 -31.129  1.00  0.00    -0.507 OA
ATOM     16  H   UNL     1      -8.527  -3.992 -32.068  1.00  0.00     0.293 HD
ENDBRANCH   2  15
TORSDOF 5
ENDMDL
MODEL 9
REMARK VINA RESULT:      -5.5     10.515     13.321
REMARK SMILES OC=CC=C(O)c1ccc(O)cc1
REMARK SMILES IDX 4 1 5 2 3 3 2 4 1 5 7 7 8 8 13 9 9 10 12 11 10 12 11 13 6 15
REMARK H PARENT 1 6 11 14 6 16
ROOT
ATOM      1  C   UNL     1      -7.013  -2.381 -30.073  1.00  0.00     0.050 C 
ATOM      2  C   UNL     1      -8.129  -2.517 -30.812  1.00  0.00     0.122 C 
ENDROOT
BRANCH   1   3
ATOM      3  C   UNL     1      -6.365  -1.132 -29.725  1.00  0.00     0.042 C 
ATOM      4  C   UNL     1      -5.219  -0.734 -30.289  1.00  0.00     0.183 C 
BRANCH   4   5
ATOM      5  O   UNL     1      -4.578   0.439 -29.996  1.00  0.00    -0.516 OA
ATOM      6  H   UNL     1      -5.242   1.106 -29.746  1.00  0.00     0.292 HD
ENDBRANCH   4   5
ENDBRANCH   1   3
BRANCH   2   7
ATOM      7  C   UNL     1      -8.894  -1.400 -31.381  1.00  0.00     0.017 A 
ATOM      8  C   UNL     1      -8.696  -1.025 -32.716  1.00  0.00     0.016 A 
ATOM      9  C   UNL     1      -9.823  -0.700 -30.601  1.00  0.00     0.016 A 
ATOM     10  C   UNL     1      -9.409   0.045 -33.264  1.00  0.00     0.047 A 
ATOM     11  C   UNL     1     -10.536   0.368 -31.147  1.00  0.00     0.047 A 
ATOM     12  C   UNL     1     -10.323   0.734 -32.472  1.00  0.00     0.115 A 
BRANCH  12  13
ATOM     13  O   UNL     1     -11.039   1.785 -32.963  1.00  0.00    -0.508 OA
ATOM     14  H   UNL     1     -11.068   2.481 -32.286  1.00  0.00     0.293 HD
ENDBRANCH  12  13
ENDBRANCH   2   7
BRANCH   2  15
ATOM     15  O   UNL     1      -8.659  -3.752 -31.124  1.00  0.00    -0.507 OA
ATOM     16  H   UNL     1      -9.550  -3.814 -30.743  1.00  0.00     0.293 HD
ENDBRANCH   2  15
TORSDOF 5
ENDMDL
MODEL 10
REMARK VINA RESULT:      -5.5     11.005     12.628
REMARK SMILES OC=CC=C(O)c1ccc(O)cc1
REMARK SMILES IDX 4 1 5 2 3 3 2 4 1 5 7 7 8 8 13 9 9 10 12 11 10 12 11 13 6 15
REMARK H PARENT 1 6 11 14 6 16
ROOT
ATOM      1  C   UNL     1      -2.524  -0.023 -29.727  1.00  0.00     0.050 C 
ATOM      2  C   UNL     1      -3.288  -0.196 -30.821  1.00  0.00     0.122 C 
ENDROOT
BRANCH   1   3
ATOM      3  C   UNL     1      -2.924   0.641 -28.502  1.00  0.00     0.042 C 
ATOM      4  C   UNL     1      -3.538  -0.001 -27.502  1.00  0.00     0.183 C 
BRANCH   4   5
ATOM      5  O   UNL     1      -3.925   0.584 -26.327  1.00  0.00    -0.516 OA
ATOM      6  H   UNL     1      -4.563  -0.000 -25.881  1.00  0.00     0.292 HD
ENDBRANCH   4   5
ENDBRANCH   1   3
BRANCH   2   7
ATOM      7  C   UNL     1      -4.680   0.256 -30.947  1.00  0.00     0.017 A 
ATOM      8  C   UNL     1      -5.731  -0.622 -30.654  1.00  0.00     0.016 A 
ATOM      9  C   UNL     1      -4.972   1.562 -31.361  1.00  0.00     0.016 A 
ATOM     10  C   UNL     1      -7.059  -0.207 -30.784  1.00  0.00     0.047 A 
ATOM     11  C   UNL     1      -6.297   1.979 -31.491  1.00  0.00     0.047 A 
ATOM     12  C   UNL     1      -7.330   1.093 -31.203  1.00  0.00     0.115 A 
BRANCH  12  13
ATOM     13  O   UNL     1      -8.609   1.541 -31.345  1.00  0.00    -0.508 OA
ATOM     14  H   UNL     1      -8.791   2.182 -30.637  1.00  0.00     0.293 HD
ENDBRANCH  12  13
ENDBRANCH   2   7
BRANCH   2  15
ATOM     15  O   UNL     1      -2.814  -0.813 -31.960  1.00  0.00    -0.507 OA
ATOM     16  H   UNL     1      -2.088  -1.408 -31.713  1.00  0.00     0.293 HD
ENDBRANCH   2  15
TORSDOF 5
ENDMDL
