MODEL 1
REMARK VINA RESULT:      -8.2      0.000      0.000
REMARK SMILES O=C(/C=C/c1ccc(O)c(O)c1)O[C@@H]1C[C@@](O)(C(=O)O)C[C@@H](O)[C@@H]1O
REMARK SMILES IDX 2 1 1 2 13 3 14 4 21 5 22 6 16 7 24 8 15 9 23 10 18 12 19 13
REMARK SMILES IDX 20 14 17 16 25 18 3 20 4 21 5 22 12 23 6 24 10 25 7 26 8 27
REMARK SMILES IDX 11 28 9 30
REMARK H PARENT 23 11 20 15 17 17 25 19 11 29 9 31
ROOT
ATOM      1  C   UNL     1      -5.122   3.050 -29.816  1.00  0.00     0.331 C 
ATOM      2  O   UNL     1      -4.670   4.096 -30.254  1.00  0.00    -0.247 OA
ENDROOT
BRANCH   1   3
ATOM      3  O   UNL     1      -4.573   2.296 -28.847  1.00  0.00    -0.456 OA
BRANCH   3   4
ATOM      4  C   UNL     1      -4.443   0.855 -28.970  1.00  0.00     0.211 C 
ATOM      5  C   UNL     1      -3.728  -1.984 -28.579  1.00  0.00     0.082 C 
ATOM      6  C   UNL     1      -3.102  -1.131 -29.696  1.00  0.00     0.150 C 
ATOM      7  C   UNL     1      -5.013  -1.407 -27.960  1.00  0.00     0.167 C 
ATOM      8  C   UNL     1      -3.015   0.347 -29.275  1.00  0.00     0.184 C 
ATOM      9  C   UNL     1      -5.044   0.116 -27.773  1.00  0.00     0.095 C 
BRANCH   6  10
ATOM     10  O   UNL     1      -3.833  -1.239 -30.909  1.00  0.00    -0.390 OA
ATOM     11  H   UNL     1      -4.307  -2.090 -30.924  1.00  0.00     0.211 HD
ENDBRANCH   6  10
BRANCH   7  12
ATOM     12  C   UNL     1      -6.252  -1.870 -28.757  1.00  0.00     0.335 C 
ATOM     13  O   UNL     1      -6.582  -1.475 -29.863  1.00  0.00    -0.249 OA
BRANCH  12  14
ATOM     14  O   UNL     1      -6.965  -2.802 -28.070  1.00  0.00    -0.479 OA
ATOM     15  H   UNL     1      -6.671  -3.684 -28.409  1.00  0.00     0.296 HD
ENDBRANCH  12  14
ENDBRANCH   7  12
BRANCH   7  16
ATOM     16  O   UNL     1      -5.177  -2.018 -26.647  1.00  0.00    -0.378 OA
ATOM     17  H   UNL     1      -5.111  -1.297 -25.989  1.00  0.00     0.212 HD
ENDBRANCH   7  16
BRANCH   8  18
ATOM     18  O   UNL     1      -2.152   0.386 -28.132  1.00  0.00    -0.387 OA
ATOM     19  H   UNL     1      -2.705   0.346 -27.323  1.00  0.00     0.211 HD
ENDBRANCH   8  18
ENDBRANCH   3   4
ENDBRANCH   1   3
BRANCH   1  20
ATOM     20  C   UNL     1      -6.376   2.462 -30.331  1.00  0.00     0.094 C 
ATOM     21  C   UNL     1      -6.547   2.032 -31.591  1.00  0.00     0.016 C 
BRANCH  21  22
ATOM     22  C   UNL     1      -7.797   1.441 -32.094  1.00  0.00    -0.021 A 
ATOM     23  C   UNL     1      -8.838   1.197 -31.185  1.00  0.00     0.058 A 
ATOM     24  C   UNL     1      -7.959   1.063 -33.438  1.00  0.00     0.012 A 
ATOM     25  C   UNL     1     -10.020   0.614 -31.631  1.00  0.00     0.157 A 
ATOM     26  C   UNL     1      -9.150   0.478 -33.877  1.00  0.00     0.051 A 
ATOM     27  C   UNL     1     -10.172   0.261 -32.968  1.00  0.00     0.157 A 
BRANCH  25  28
ATOM     28  O   UNL     1     -11.067   0.363 -30.786  1.00  0.00    -0.504 OA
ATOM     29  H   UNL     1     -11.635  -0.311 -31.194  1.00  0.00     0.293 HD
ENDBRANCH  25  28
BRANCH  27  30
ATOM     30  O   UNL     1     -11.335  -0.312 -33.396  1.00  0.00    -0.504 OA
ATOM     31  H   UNL     1     -11.776  -0.612 -32.577  1.00  0.00     0.293 HD
ENDBRANCH  27  30
ENDBRANCH  21  22
ENDBRANCH   1  20
TORSDOF 11
ENDMDL
MODEL 2
REMARK VINA RESULT:      -7.8      3.272      5.381
REMARK SMILES O=C(/C=C/c1ccc(O)c(O)c1)O[C@@H]1C[C@@](O)(C(=O)O)C[C@@H](O)[C@@H]1O
REMARK SMILES IDX 2 1 1 2 13 3 14 4 21 5 22 6 16 7 24 8 15 9 23 10 18 12 19 13
REMARK SMILES IDX 20 14 17 16 25 18 3 20 4 21 5 22 12 23 6 24 10 25 7 26 8 27
REMARK SMILES IDX 11 28 9 30
REMARK H PARENT 23 11 20 15 17 17 25 19 11 29 9 31
ROOT
ATOM      1  C   UNL     1      -6.964  -0.996 -31.053  1.00  0.00     0.331 C 
ATOM      2  O   UNL     1      -7.184  -0.129 -31.884  1.00  0.00    -0.247 OA
ENDROOT
BRANCH   1   3
ATOM      3  O   UNL     1      -5.766  -1.294 -30.520  1.00  0.00    -0.456 OA
BRANCH   3   4
ATOM      4  C   UNL     1      -5.187  -0.517 -29.439  1.00  0.00     0.211 C 
ATOM      5  C   UNL     1      -3.580   0.408 -27.139  1.00  0.00     0.082 C 
ATOM      6  C   UNL     1      -5.058   0.006 -26.994  1.00  0.00     0.150 C 
ATOM      7  C   UNL     1      -3.119   0.688 -28.580  1.00  0.00     0.167 C 
ATOM      8  C   UNL     1      -5.437  -1.078 -28.020  1.00  0.00     0.184 C 
ATOM      9  C   UNL     1      -3.700  -0.234 -29.663  1.00  0.00     0.095 C 
BRANCH   6  10
ATOM     10  O   UNL     1      -5.921   1.125 -27.141  1.00  0.00    -0.390 OA
ATOM     11  H   UNL     1      -6.476   1.210 -26.345  1.00  0.00     0.211 HD
ENDBRANCH   6  10
BRANCH   7  12
ATOM     12  C   UNL     1      -3.367   2.166 -28.951  1.00  0.00     0.335 C 
ATOM     13  O   UNL     1      -3.214   3.125 -28.212  1.00  0.00    -0.249 OA
BRANCH  12  14
ATOM     14  O   UNL     1      -3.790   2.292 -30.236  1.00  0.00    -0.479 OA
ATOM     15  H   UNL     1      -3.808   3.262 -30.431  1.00  0.00     0.296 HD
ENDBRANCH  12  14
ENDBRANCH   7  12
BRANCH   7  16
ATOM     16  O   UNL     1      -1.670   0.545 -28.610  1.00  0.00    -0.378 OA
ATOM     17  H   UNL     1      -1.348   1.071 -29.369  1.00  0.00     0.212 HD
ENDBRANCH   7  16
BRANCH   8  18
ATOM     18  O   UNL     1      -4.621  -2.216 -27.716  1.00  0.00    -0.387 OA
ATOM     19  H   UNL     1      -3.788  -1.902 -27.305  1.00  0.00     0.211 HD
ENDBRANCH   8  18
ENDBRANCH   3   4
ENDBRANCH   1   3
BRANCH   1  20
ATOM     20  C   UNL     1      -8.038  -1.860 -30.521  1.00  0.00     0.094 C 
ATOM     21  C   UNL     1      -7.827  -3.041 -29.918  1.00  0.00     0.016 C 
BRANCH  21  22
ATOM     22  C   UNL     1      -8.902  -3.893 -29.384  1.00  0.00    -0.021 A 
ATOM     23  C   UNL     1      -9.661  -4.659 -30.282  1.00  0.00     0.058 A 
ATOM     24  C   UNL     1      -9.226  -3.919 -28.017  1.00  0.00     0.012 A 
ATOM     25  C   UNL     1     -10.701  -5.451 -29.806  1.00  0.00     0.157 A 
ATOM     26  C   UNL     1     -10.273  -4.719 -27.547  1.00  0.00     0.051 A 
ATOM     27  C   UNL     1     -11.000  -5.481 -28.447  1.00  0.00     0.157 A 
BRANCH  25  28
ATOM     28  O   UNL     1     -11.464  -6.222 -30.640  1.00  0.00    -0.504 OA
ATOM     29  H   UNL     1     -11.994  -6.829 -30.096  1.00  0.00     0.293 HD
ENDBRANCH  25  28
BRANCH  27  30
ATOM     30  O   UNL     1     -12.022  -6.260 -27.989  1.00  0.00    -0.504 OA
ATOM     31  H   UNL     1     -12.718  -5.624 -27.730  1.00  0.00     0.293 HD
ENDBRANCH  27  30
ENDBRANCH  21  22
ENDBRANCH   1  20
TORSDOF 11
ENDMDL
MODEL 3
REMARK VINA RESULT:      -7.8      2.950      4.704
REMARK SMILES O=C(/C=C/c1ccc(O)c(O)c1)O[C@@H]1C[C@@](O)(C(=O)O)C[C@@H](O)[C@@H]1O
REMARK SMILES IDX 2 1 1 2 13 3 14 4 21 5 22 6 16 7 24 8 15 9 23 10 18 12 19 13
REMARK SMILES IDX 20 14 17 16 25 18 3 20 4 21 5 22 12 23 6 24 10 25 7 26 8 27
REMARK SMILES IDX 11 28 9 30
REMARK H PARENT 23 11 20 15 17 17 25 19 11 29 9 31
ROOT
ATOM      1  C   UNL     1      -7.626  -0.197 -31.761  1.00  0.00     0.331 C 
ATOM      2  O   UNL     1      -7.943   0.092 -32.905  1.00  0.00    -0.247 OA
ENDROOT
BRANCH   1   3
ATOM      3  O   UNL     1      -6.947   0.589 -30.907  1.00  0.00    -0.456 OA
BRANCH   3   4
ATOM      4  C   UNL     1      -5.603   0.266 -30.463  1.00  0.00     0.211 C 
ATOM      5  C   UNL     1      -2.780   0.393 -29.605  1.00  0.00     0.082 C 
ATOM      6  C   UNL     1      -3.186  -0.095 -31.006  1.00  0.00     0.150 C 
ATOM      7  C   UNL     1      -3.916   0.415 -28.567  1.00  0.00     0.167 C 
ATOM      8  C   UNL     1      -4.480   0.595 -31.474  1.00  0.00     0.184 C 
ATOM      9  C   UNL     1      -5.292   0.857 -29.087  1.00  0.00     0.095 C 
BRANCH   6  10
ATOM     10  O   UNL     1      -3.357  -1.504 -31.040  1.00  0.00    -0.390 OA
ATOM     11  H   UNL     1      -2.517  -1.924 -31.299  1.00  0.00     0.211 HD
ENDBRANCH   6  10
BRANCH   7  12
ATOM     12  C   UNL     1      -4.029  -0.951 -27.859  1.00  0.00     0.335 C 
ATOM     13  O   UNL     1      -3.806  -2.040 -28.362  1.00  0.00    -0.249 OA
BRANCH  12  14
ATOM     14  O   UNL     1      -4.418  -0.810 -26.564  1.00  0.00    -0.479 OA
ATOM     15  H   UNL     1      -4.483  -1.724 -26.190  1.00  0.00     0.296 HD
ENDBRANCH  12  14
ENDBRANCH   7  12
BRANCH   7  16
ATOM     16  O   UNL     1      -3.524   1.340 -27.512  1.00  0.00    -0.378 OA
ATOM     17  H   UNL     1      -3.242   2.168 -27.950  1.00  0.00     0.212 HD
ENDBRANCH   7  16
BRANCH   8  18
ATOM     18  O   UNL     1      -4.183   1.994 -31.545  1.00  0.00    -0.387 OA
ATOM     19  H   UNL     1      -3.626   2.155 -32.336  1.00  0.00     0.211 HD
ENDBRANCH   8  18
ENDBRANCH   3   4
ENDBRANCH   1   3
BRANCH   1  20
ATOM     20  C   UNL     1      -7.960  -1.506 -31.163  1.00  0.00     0.094 C 
ATOM     21  C   UNL     1      -8.858  -1.679 -30.180  1.00  0.00     0.016 C 
BRANCH  21  22
ATOM     22  C   UNL     1      -9.190  -2.988 -29.594  1.00  0.00    -0.021 A 
ATOM     23  C   UNL     1      -9.561  -3.044 -28.242  1.00  0.00     0.058 A 
ATOM     24  C   UNL     1      -9.094  -4.182 -30.328  1.00  0.00     0.012 A 
ATOM     25  C   UNL     1      -9.854  -4.272 -27.657  1.00  0.00     0.157 A 
ATOM     26  C   UNL     1      -9.390  -5.412 -29.732  1.00  0.00     0.051 A 
ATOM     27  C   UNL     1      -9.770  -5.445 -28.401  1.00  0.00     0.157 A 
BRANCH  25  28
ATOM     28  O   UNL     1     -10.228  -4.379 -26.345  1.00  0.00    -0.504 OA
ATOM     29  H   UNL     1     -10.437  -5.310 -26.161  1.00  0.00     0.293 HD
ENDBRANCH  25  28
BRANCH  27  30
ATOM     30  O   UNL     1     -10.058  -6.646 -27.819  1.00  0.00    -0.504 OA
ATOM     31  H   UNL     1      -9.891  -6.503 -26.866  1.00  0.00     0.293 HD
ENDBRANCH  27  30
ENDBRANCH  21  22
ENDBRANCH   1  20
TORSDOF 11
ENDMDL
MODEL 4
REMARK VINA RESULT:      -7.8      3.327      5.166
REMARK SMILES O=C(/C=C/c1ccc(O)c(O)c1)O[C@@H]1C[C@@](O)(C(=O)O)C[C@@H](O)[C@@H]1O
REMARK SMILES IDX 2 1 1 2 13 3 14 4 21 5 22 6 16 7 24 8 15 9 23 10 18 12 19 13
REMARK SMILES IDX 20 14 17 16 25 18 3 20 4 21 5 22 12 23 6 24 10 25 7 26 8 27
REMARK SMILES IDX 11 28 9 30
REMARK H PARENT 23 11 20 15 17 17 25 19 11 29 9 31
ROOT
ATOM      1  C   UNL     1      -7.848  -0.109 -30.596  1.00  0.00     0.331 C 
ATOM      2  O   UNL     1      -7.834   0.126 -31.795  1.00  0.00    -0.247 OA
ENDROOT
BRANCH   1   3
ATOM      3  O   UNL     1      -7.104   0.509 -29.661  1.00  0.00    -0.456 OA
BRANCH   3   4
ATOM      4  C   UNL     1      -5.779   0.040 -29.295  1.00  0.00     0.211 C 
ATOM      5  C   UNL     1      -3.440  -1.618 -28.587  1.00  0.00     0.082 C 
ATOM      6  C   UNL     1      -4.199  -0.787 -27.538  1.00  0.00     0.150 C 
ATOM      7  C   UNL     1      -3.706  -1.222 -30.050  1.00  0.00     0.167 C 
ATOM      8  C   UNL     1      -5.685  -0.652 -27.915  1.00  0.00     0.184 C 
ATOM      9  C   UNL     1      -5.151  -0.828 -30.387  1.00  0.00     0.095 C 
BRANCH   6  10
ATOM     10  O   UNL     1      -3.627   0.503 -27.380  1.00  0.00    -0.390 OA
ATOM     11  H   UNL     1      -3.999   1.105 -28.048  1.00  0.00     0.211 HD
ENDBRANCH   6  10
BRANCH   7  12
ATOM     12  C   UNL     1      -2.732  -0.110 -30.495  1.00  0.00     0.335 C 
ATOM     13  O   UNL     1      -1.791   0.319 -29.848  1.00  0.00    -0.249 OA
BRANCH  12  14
ATOM     14  O   UNL     1      -3.046   0.359 -31.732  1.00  0.00    -0.479 OA
ATOM     15  H   UNL     1      -3.919   0.817 -31.644  1.00  0.00     0.296 HD
ENDBRANCH  12  14
ENDBRANCH   7  12
BRANCH   7  16
ATOM     16  O   UNL     1      -3.354  -2.366 -30.881  1.00  0.00    -0.378 OA
ATOM     17  H   UNL     1      -2.380  -2.361 -30.974  1.00  0.00     0.212 HD
ENDBRANCH   7  16
BRANCH   8  18
ATOM     18  O   UNL     1      -6.218  -1.981 -27.918  1.00  0.00    -0.387 OA
ATOM     19  H   UNL     1      -5.471  -2.616 -27.930  1.00  0.00     0.211 HD
ENDBRANCH   8  18
ENDBRANCH   3   4
ENDBRANCH   1   3
BRANCH   1  20
ATOM     20  C   UNL     1      -8.715  -1.153 -30.012  1.00  0.00     0.094 C 
ATOM     21  C   UNL     1      -8.480  -2.471 -30.108  1.00  0.00     0.016 C 
BRANCH  21  22
ATOM     22  C   UNL     1      -9.346  -3.504 -29.517  1.00  0.00    -0.021 A 
ATOM     23  C   UNL     1      -9.968  -4.428 -30.371  1.00  0.00     0.058 A 
ATOM     24  C   UNL     1      -9.613  -3.558 -28.139  1.00  0.00     0.012 A 
ATOM     25  C   UNL     1     -10.813  -5.397 -29.840  1.00  0.00     0.157 A 
ATOM     26  C   UNL     1     -10.463  -4.535 -27.614  1.00  0.00     0.051 A 
ATOM     27  C   UNL     1     -11.055  -5.450 -28.471  1.00  0.00     0.157 A 
BRANCH  25  28
ATOM     28  O   UNL     1     -11.437  -6.326 -30.630  1.00  0.00    -0.504 OA
ATOM     29  H   UNL     1     -10.756  -6.889 -31.035  1.00  0.00     0.293 HD
ENDBRANCH  25  28
BRANCH  27  30
ATOM     30  O   UNL     1     -11.886  -6.403 -27.959  1.00  0.00    -0.504 OA
ATOM     31  H   UNL     1     -11.594  -6.510 -27.032  1.00  0.00     0.293 HD
ENDBRANCH  27  30
ENDBRANCH  21  22
ENDBRANCH   1  20
TORSDOF 11
ENDMDL
MODEL 5
REMARK VINA RESULT:      -7.8      3.417      5.104
REMARK SMILES O=C(/C=C/c1ccc(O)c(O)c1)O[C@@H]1C[C@@](O)(C(=O)O)C[C@@H](O)[C@@H]1O
REMARK SMILES IDX 2 1 1 2 13 3 14 4 21 5 22 6 16 7 24 8 15 9 23 10 18 12 19 13
REMARK SMILES IDX 20 14 17 16 25 18 3 20 4 21 5 22 12 23 6 24 10 25 7 26 8 27
REMARK SMILES IDX 11 28 9 30
REMARK H PARENT 23 11 20 15 17 17 25 19 11 29 9 31
ROOT
ATOM      1  C   UNL     1      -7.445  -0.770 -31.456  1.00  0.00     0.331 C 
ATOM      2  O   UNL     1      -7.792   0.122 -32.216  1.00  0.00    -0.247 OA
ENDROOT
BRANCH   1   3
ATOM      3  O   UNL     1      -6.183  -1.038 -31.076  1.00  0.00    -0.456 OA
BRANCH   3   4
ATOM      4  C   UNL     1      -5.433  -0.148 -30.209  1.00  0.00     0.211 C 
ATOM      5  C   UNL     1      -4.522   2.140 -28.578  1.00  0.00     0.082 C 
ATOM      6  C   UNL     1      -3.902   1.816 -29.948  1.00  0.00     0.150 C 
ATOM      7  C   UNL     1      -5.330   0.995 -27.941  1.00  0.00     0.167 C 
ATOM      8  C   UNL     1      -4.937   1.156 -30.877  1.00  0.00     0.184 C 
ATOM      9  C   UNL     1      -6.176   0.152 -28.906  1.00  0.00     0.095 C 
BRANCH   6  10
ATOM     10  O   UNL     1      -2.766   0.973 -29.822  1.00  0.00    -0.390 OA
ATOM     11  H   UNL     1      -2.584   0.816 -28.879  1.00  0.00     0.211 HD
ENDBRANCH   6  10
BRANCH   7  12
ATOM     12  C   UNL     1      -4.409   0.082 -27.104  1.00  0.00     0.335 C 
ATOM     13  O   UNL     1      -3.661  -0.777 -27.542  1.00  0.00    -0.249 OA
BRANCH  12  14
ATOM     14  O   UNL     1      -4.521   0.346 -25.775  1.00  0.00    -0.479 OA
ATOM     15  H   UNL     1      -5.020  -0.412 -25.381  1.00  0.00     0.296 HD
ENDBRANCH  12  14
ENDBRANCH   7  12
BRANCH   7  16
ATOM     16  O   UNL     1      -6.234   1.591 -26.966  1.00  0.00    -0.378 OA
ATOM     17  H   UNL     1      -5.798   2.400 -26.631  1.00  0.00     0.212 HD
ENDBRANCH   7  16
BRANCH   8  18
ATOM     18  O   UNL     1      -5.979   2.121 -31.062  1.00  0.00    -0.387 OA
ATOM     19  H   UNL     1      -6.428   1.934 -31.914  1.00  0.00     0.211 HD
ENDBRANCH   8  18
ENDBRANCH   3   4
ENDBRANCH   1   3
BRANCH   1  20
ATOM     20  C   UNL     1      -8.417  -1.703 -30.849  1.00  0.00     0.094 C 
ATOM     21  C   UNL     1      -8.077  -2.808 -30.167  1.00  0.00     0.016 C 
BRANCH  21  22
ATOM     22  C   UNL     1      -9.051  -3.728 -29.559  1.00  0.00    -0.021 A 
ATOM     23  C   UNL     1      -9.808  -4.559 -30.400  1.00  0.00     0.058 A 
ATOM     24  C   UNL     1      -9.286  -3.761 -28.174  1.00  0.00     0.012 A 
ATOM     25  C   UNL     1     -10.755  -5.418 -29.851  1.00  0.00     0.157 A 
ATOM     26  C   UNL     1     -10.240  -4.627 -27.631  1.00  0.00     0.051 A 
ATOM     27  C   UNL     1     -10.965  -5.451 -28.477  1.00  0.00     0.157 A 
BRANCH  25  28
ATOM     28  O   UNL     1     -11.512  -6.253 -30.629  1.00  0.00    -0.504 OA
ATOM     29  H   UNL     1     -12.063  -5.708 -31.216  1.00  0.00     0.293 HD
ENDBRANCH  25  28
BRANCH  27  30
ATOM     30  O   UNL     1     -11.897  -6.296 -27.947  1.00  0.00    -0.504 OA
ATOM     31  H   UNL     1     -12.755  -5.897 -28.191  1.00  0.00     0.293 HD
ENDBRANCH  27  30
ENDBRANCH  21  22
ENDBRANCH   1  20
TORSDOF 11
ENDMDL
MODEL 6
REMARK VINA RESULT:      -7.7      4.975      7.583
REMARK SMILES O=C(/C=C/c1ccc(O)c(O)c1)O[C@@H]1C[C@@](O)(C(=O)O)C[C@@H](O)[C@@H]1O
REMARK SMILES IDX 2 1 1 2 13 3 14 4 21 5 22 6 16 7 24 8 15 9 23 10 18 12 19 13
REMARK SMILES IDX 20 14 17 16 25 18 3 20 4 21 5 22 12 23 6 24 10 25 7 26 8 27
REMARK SMILES IDX 11 28 9 30
REMARK H PARENT 23 11 20 15 17 17 25 19 11 29 9 31
ROOT
ATOM      1  C   UNL     1      -7.006   0.199 -24.777  1.00  0.00     0.331 C 
ATOM      2  O   UNL     1      -7.447   1.280 -24.418  1.00  0.00    -0.247 OA
ENDROOT
BRANCH   1   3
ATOM      3  O   UNL     1      -6.974  -0.926 -24.040  1.00  0.00    -0.456 OA
BRANCH   3   4
ATOM      4  C   UNL     1      -8.172  -1.500 -23.455  1.00  0.00     0.211 C 
ATOM      5  C   UNL     1     -10.478  -3.227 -22.806  1.00  0.00     0.082 C 
ATOM      6  C   UNL     1     -10.642  -1.899 -23.564  1.00  0.00     0.150 C 
ATOM      7  C   UNL     1      -9.140  -3.396 -22.065  1.00  0.00     0.167 C 
ATOM      8  C   UNL     1      -9.390  -1.588 -24.404  1.00  0.00     0.184 C 
ATOM      9  C   UNL     1      -7.900  -2.848 -22.786  1.00  0.00     0.095 C 
BRANCH   6  10
ATOM     10  O   UNL     1     -10.901  -0.819 -22.678  1.00  0.00    -0.390 OA
ATOM     11  H   UNL     1     -10.870  -1.142 -21.760  1.00  0.00     0.211 HD
ENDBRANCH   6  10
BRANCH   7  12
ATOM     12  C   UNL     1      -9.232  -2.806 -20.642  1.00  0.00     0.335 C 
ATOM     13  O   UNL     1      -9.111  -1.629 -20.344  1.00  0.00    -0.249 OA
BRANCH  12  14
ATOM     14  O   UNL     1      -9.471  -3.774 -19.717  1.00  0.00    -0.479 OA
ATOM     15  H   UNL     1      -9.428  -4.637 -20.199  1.00  0.00     0.296 HD
ENDBRANCH  12  14
ENDBRANCH   7  12
BRANCH   7  16
ATOM     16  O   UNL     1      -8.936  -4.823 -21.855  1.00  0.00    -0.378 OA
ATOM     17  H   UNL     1      -7.988  -5.001 -22.020  1.00  0.00     0.212 HD
ENDBRANCH   7  16
BRANCH   8  18
ATOM     18  O   UNL     1      -9.278  -2.649 -25.360  1.00  0.00    -0.387 OA
ATOM     19  H   UNL     1      -8.493  -2.480 -25.923  1.00  0.00     0.211 HD
ENDBRANCH   8  18
ENDBRANCH   3   4
ENDBRANCH   1   3
BRANCH   1  20
ATOM     20  C   UNL     1      -6.423  -0.001 -26.120  1.00  0.00     0.094 C 
ATOM     21  C   UNL     1      -5.112  -0.165 -26.357  1.00  0.00     0.016 C 
BRANCH  21  22
ATOM     22  C   UNL     1      -4.540  -0.372 -27.697  1.00  0.00    -0.021 A 
ATOM     23  C   UNL     1      -4.511   0.711 -28.589  1.00  0.00     0.058 A 
ATOM     24  C   UNL     1      -4.076  -1.626 -28.128  1.00  0.00     0.012 A 
ATOM     25  C   UNL     1      -4.001   0.535 -29.871  1.00  0.00     0.157 A 
ATOM     26  C   UNL     1      -3.565  -1.794 -29.418  1.00  0.00     0.051 A 
ATOM     27  C   UNL     1      -3.529  -0.709 -30.278  1.00  0.00     0.157 A 
BRANCH  25  28
ATOM     28  O   UNL     1      -3.944   1.561 -30.775  1.00  0.00    -0.504 OA
ATOM     29  H   UNL     1      -4.608   1.398 -31.466  1.00  0.00     0.293 HD
ENDBRANCH  25  28
BRANCH  27  30
ATOM     30  O   UNL     1      -3.032  -0.873 -31.538  1.00  0.00    -0.504 OA
ATOM     31  H   UNL     1      -2.608  -1.754 -31.521  1.00  0.00     0.293 HD
ENDBRANCH  27  30
ENDBRANCH  21  22
ENDBRANCH   1  20
TORSDOF 11
ENDMDL
MODEL 7
REMARK VINA RESULT:      -7.7      1.471      3.790
REMARK SMILES O=C(/C=C/c1ccc(O)c(O)c1)O[C@@H]1C[C@@](O)(C(=O)O)C[C@@H](O)[C@@H]1O
REMARK SMILES IDX 2 1 1 2 13 3 14 4 21 5 22 6 16 7 24 8 15 9 23 10 18 12 19 13
REMARK SMILES IDX 20 14 17 16 25 18 3 20 4 21 5 22 12 23 6 24 10 25 7 26 8 27
REMARK SMILES IDX 11 28 9 30
REMARK H PARENT 23 11 20 15 17 17 25 19 11 29 9 31
ROOT
ATOM      1  C   UNL     1      -6.673  -2.397 -28.359  1.00  0.00     0.331 C 
ATOM      2  O   UNL     1      -7.060  -3.537 -28.154  1.00  0.00    -0.247 OA
ENDROOT
BRANCH   1   3
ATOM      3  O   UNL     1      -5.512  -1.868 -27.932  1.00  0.00    -0.456 OA
BRANCH   3   4
ATOM      4  C   UNL     1      -4.941  -0.675 -28.531  1.00  0.00     0.211 C 
ATOM      5  C   UNL     1      -3.260   1.672 -29.159  1.00  0.00     0.082 C 
ATOM      6  C   UNL     1      -4.653   1.812 -28.520  1.00  0.00     0.150 C 
ATOM      7  C   UNL     1      -2.977   0.308 -29.812  1.00  0.00     0.167 C 
ATOM      8  C   UNL     1      -4.981   0.590 -27.643  1.00  0.00     0.184 C 
ATOM      9  C   UNL     1      -3.531  -0.919 -29.074  1.00  0.00     0.095 C 
BRANCH   6  10
ATOM     10  O   UNL     1      -5.664   1.980 -29.503  1.00  0.00    -0.390 OA
ATOM     11  H   UNL     1      -6.127   1.134 -29.637  1.00  0.00     0.211 HD
ENDBRANCH   6  10
BRANCH   7  12
ATOM     12  C   UNL     1      -3.450   0.303 -31.282  1.00  0.00     0.335 C 
ATOM     13  O   UNL     1      -4.224   1.098 -31.788  1.00  0.00    -0.249 OA
BRANCH  12  14
ATOM     14  O   UNL     1      -2.890  -0.720 -31.981  1.00  0.00    -0.479 OA
ATOM     15  H   UNL     1      -2.064  -0.360 -32.389  1.00  0.00     0.296 HD
ENDBRANCH  12  14
ENDBRANCH   7  12
BRANCH   7  16
ATOM     16  O   UNL     1      -1.530   0.157 -29.896  1.00  0.00    -0.378 OA
ATOM     17  H   UNL     1      -1.217   0.796 -30.567  1.00  0.00     0.212 HD
ENDBRANCH   7  16
BRANCH   8  18
ATOM     18  O   UNL     1      -3.999   0.573 -26.600  1.00  0.00    -0.387 OA
ATOM     19  H   UNL     1      -3.785   1.499 -26.359  1.00  0.00     0.211 HD
ENDBRANCH   8  18
ENDBRANCH   3   4
ENDBRANCH   1   3
BRANCH   1  20
ATOM     20  C   UNL     1      -7.476  -1.423 -29.127  1.00  0.00     0.094 C 
ATOM     21  C   UNL     1      -7.611  -1.442 -30.462  1.00  0.00     0.016 C 
BRANCH  21  22
ATOM     22  C   UNL     1      -8.420  -0.473 -31.219  1.00  0.00    -0.021 A 
ATOM     23  C   UNL     1      -9.663  -0.884 -31.724  1.00  0.00     0.058 A 
ATOM     24  C   UNL     1      -7.963   0.826 -31.499  1.00  0.00     0.012 A 
ATOM     25  C   UNL     1     -10.434   0.005 -32.466  1.00  0.00     0.157 A 
ATOM     26  C   UNL     1      -8.745   1.713 -32.245  1.00  0.00     0.051 A 
ATOM     27  C   UNL     1      -9.977   1.294 -32.720  1.00  0.00     0.157 A 
BRANCH  25  28
ATOM     28  O   UNL     1     -11.657  -0.346 -32.973  1.00  0.00    -0.504 OA
ATOM     29  H   UNL     1     -12.269   0.397 -32.835  1.00  0.00     0.293 HD
ENDBRANCH  25  28
BRANCH  27  30
ATOM     30  O   UNL     1     -10.739   2.159 -33.450  1.00  0.00    -0.504 OA
ATOM     31  H   UNL     1     -11.361   2.545 -32.802  1.00  0.00     0.293 HD
ENDBRANCH  27  30
ENDBRANCH  21  22
ENDBRANCH   1  20
TORSDOF 11
ENDMDL
MODEL 8
REMARK VINA RESULT:      -7.7      3.357      5.335
REMARK SMILES O=C(/C=C/c1ccc(O)c(O)c1)O[C@@H]1C[C@@](O)(C(=O)O)C[C@@H](O)[C@@H]1O
REMARK SMILES IDX 2 1 1 2 13 3 14 4 21 5 22 6 16 7 24 8 15 9 23 10 18 12 19 13
REMARK SMILES IDX 20 14 17 16 25 18 3 20 4 21 5 22 12 23 6 24 10 25 7 26 8 27
REMARK SMILES IDX 11 28 9 30
REMARK H PARENT 23 11 20 15 17 17 25 19 11 29 9 31
ROOT
ATOM      1  C   UNL     1      -7.258  -0.941 -31.345  1.00  0.00     0.331 C 
ATOM      2  O   UNL     1      -7.513  -0.160 -32.249  1.00  0.00    -0.247 OA
ENDROOT
BRANCH   1   3
ATOM      3  O   UNL     1      -6.057  -1.112 -30.764  1.00  0.00    -0.456 OA
BRANCH   3   4
ATOM      4  C   UNL     1      -5.329  -0.011 -30.158  1.00  0.00     0.211 C 
ATOM      5  C   UNL     1      -4.426   2.172 -28.386  1.00  0.00     0.082 C 
ATOM      6  C   UNL     1      -5.102   2.447 -29.740  1.00  0.00     0.150 C 
ATOM      7  C   UNL     1      -3.889   0.742 -28.203  1.00  0.00     0.167 C 
ATOM      8  C   UNL     1      -6.099   1.329 -30.093  1.00  0.00     0.184 C 
ATOM      9  C   UNL     1      -4.757  -0.381 -28.788  1.00  0.00     0.095 C 
BRANCH   6  10
ATOM     10  O   UNL     1      -4.148   2.583 -30.783  1.00  0.00    -0.390 OA
ATOM     11  H   UNL     1      -4.030   1.724 -31.226  1.00  0.00     0.211 HD
ENDBRANCH   6  10
BRANCH   7  12
ATOM     12  C   UNL     1      -2.445   0.633 -28.739  1.00  0.00     0.335 C 
ATOM     13  O   UNL     1      -2.125   0.351 -29.882  1.00  0.00    -0.249 OA
BRANCH  12  14
ATOM     14  O   UNL     1      -1.533   0.894 -27.766  1.00  0.00    -0.479 OA
ATOM     15  H   UNL     1      -0.769   0.285 -27.929  1.00  0.00     0.296 HD
ENDBRANCH  12  14
ENDBRANCH   7  12
BRANCH   7  16
ATOM     16  O   UNL     1      -3.763   0.503 -26.771  1.00  0.00    -0.378 OA
ATOM     17  H   UNL     1      -2.806   0.482 -26.570  1.00  0.00     0.212 HD
ENDBRANCH   7  16
BRANCH   8  18
ATOM     18  O   UNL     1      -7.100   1.349 -29.069  1.00  0.00    -0.387 OA
ATOM     19  H   UNL     1      -7.952   1.062 -29.460  1.00  0.00     0.211 HD
ENDBRANCH   8  18
ENDBRANCH   3   4
ENDBRANCH   1   3
BRANCH   1  20
ATOM     20  C   UNL     1      -8.284  -1.834 -30.768  1.00  0.00     0.094 C 
ATOM     21  C   UNL     1      -8.010  -2.959 -30.090  1.00  0.00     0.016 C 
BRANCH  21  22
ATOM     22  C   UNL     1      -9.038  -3.840 -29.512  1.00  0.00    -0.021 A 
ATOM     23  C   UNL     1      -9.816  -4.623 -30.379  1.00  0.00     0.058 A 
ATOM     24  C   UNL     1      -9.302  -3.877 -28.133  1.00  0.00     0.012 A 
ATOM     25  C   UNL     1     -10.813  -5.443 -29.859  1.00  0.00     0.157 A 
ATOM     26  C   UNL     1     -10.305  -4.704 -27.620  1.00  0.00     0.051 A 
ATOM     27  C   UNL     1     -11.052  -5.482 -28.489  1.00  0.00     0.157 A 
BRANCH  25  28
ATOM     28  O   UNL     1     -11.593  -6.231 -30.661  1.00  0.00    -0.504 OA
ATOM     29  H   UNL     1     -11.582  -7.136 -30.305  1.00  0.00     0.293 HD
ENDBRANCH  25  28
BRANCH  27  30
ATOM     30  O   UNL     1     -12.032  -6.288 -27.989  1.00  0.00    -0.504 OA
ATOM     31  H   UNL     1     -11.577  -6.847 -27.328  1.00  0.00     0.293 HD
ENDBRANCH  27  30
ENDBRANCH  21  22
ENDBRANCH   1  20
TORSDOF 11
ENDMDL
MODEL 9
REMARK VINA RESULT:      -7.7      2.485      6.824
REMARK SMILES O=C(/C=C/c1ccc(O)c(O)c1)O[C@@H]1C[C@@](O)(C(=O)O)C[C@@H](O)[C@@H]1O
REMARK SMILES IDX 2 1 1 2 13 3 14 4 21 5 22 6 16 7 24 8 15 9 23 10 18 12 19 13
REMARK SMILES IDX 20 14 17 16 25 18 3 20 4 21 5 22 12 23 6 24 10 25 7 26 8 27
REMARK SMILES IDX 11 28 9 30
REMARK H PARENT 23 11 20 15 17 17 25 19 11 29 9 31
ROOT
ATOM      1  C   UNL     1      -8.486  -1.196 -27.517  1.00  0.00     0.331 C 
ATOM      2  O   UNL     1      -8.574  -1.756 -26.435  1.00  0.00    -0.247 OA
ENDROOT
BRANCH   1   3
ATOM      3  O   UNL     1      -9.500  -0.955 -28.366  1.00  0.00    -0.456 OA
BRANCH   3   4
ATOM      4  C   UNL     1      -9.283  -0.731 -29.785  1.00  0.00     0.211 C 
ATOM      5  C   UNL     1      -9.270  -0.938 -32.731  1.00  0.00     0.082 C 
ATOM      6  C   UNL     1      -8.033  -1.280 -31.883  1.00  0.00     0.150 C 
ATOM      7  C   UNL     1     -10.347  -0.110 -32.008  1.00  0.00     0.167 C 
ATOM      8  C   UNL     1      -8.446  -1.816 -30.500  1.00  0.00     0.184 C 
ATOM      9  C   UNL     1     -10.590  -0.464 -30.534  1.00  0.00     0.095 C 
BRANCH   6  10
ATOM     10  O   UNL     1      -7.180  -0.156 -31.724  1.00  0.00    -0.390 OA
ATOM     11  H   UNL     1      -6.749  -0.200 -30.852  1.00  0.00     0.211 HD
ENDBRANCH   6  10
BRANCH   7  12
ATOM     12  C   UNL     1     -10.057   1.400 -32.152  1.00  0.00     0.335 C 
ATOM     13  O   UNL     1      -9.156   2.012 -31.603  1.00  0.00    -0.249 OA
BRANCH  12  14
ATOM     14  O   UNL     1     -10.945   1.999 -32.988  1.00  0.00    -0.479 OA
ATOM     15  H   UNL     1     -11.560   1.289 -33.299  1.00  0.00     0.296 HD
ENDBRANCH  12  14
ENDBRANCH   7  12
BRANCH   7  16
ATOM     16  O   UNL     1     -11.601  -0.308 -32.723  1.00  0.00    -0.378 OA
ATOM     17  H   UNL     1     -12.276  -0.540 -32.053  1.00  0.00     0.212 HD
ENDBRANCH   7  16
BRANCH   8  18
ATOM     18  O   UNL     1      -9.182  -3.021 -30.744  1.00  0.00    -0.387 OA
ATOM     19  H   UNL     1      -9.871  -2.835 -31.417  1.00  0.00     0.211 HD
ENDBRANCH   8  18
ENDBRANCH   3   4
ENDBRANCH   1   3
BRANCH   1  20
ATOM     20  C   UNL     1      -7.195  -0.708 -28.043  1.00  0.00     0.094 C 
ATOM     21  C   UNL     1      -6.068  -1.437 -28.076  1.00  0.00     0.016 C 
BRANCH  21  22
ATOM     22  C   UNL     1      -4.788  -0.945 -28.608  1.00  0.00    -0.021 A 
ATOM     23  C   UNL     1      -4.502  -1.149 -29.968  1.00  0.00     0.058 A 
ATOM     24  C   UNL     1      -3.823  -0.331 -27.791  1.00  0.00     0.012 A 
ATOM     25  C   UNL     1      -3.287  -0.718 -30.490  1.00  0.00     0.157 A 
ATOM     26  C   UNL     1      -2.605   0.099 -28.324  1.00  0.00     0.051 A 
ATOM     27  C   UNL     1      -2.348  -0.096 -29.672  1.00  0.00     0.157 A 
BRANCH  25  28
ATOM     28  O   UNL     1      -2.965  -0.886 -31.809  1.00  0.00    -0.504 OA
ATOM     29  H   UNL     1      -3.715  -0.582 -32.348  1.00  0.00     0.293 HD
ENDBRANCH  25  28
BRANCH  27  30
ATOM     30  O   UNL     1      -1.158   0.322 -30.192  1.00  0.00    -0.504 OA
ATOM     31  H   UNL     1      -0.491  -0.259 -29.776  1.00  0.00     0.293 HD
ENDBRANCH  27  30
ENDBRANCH  21  22
ENDBRANCH   1  20
TORSDOF 11
ENDMDL
MODEL 10
REMARK VINA RESULT:      -7.5      4.902      7.876
REMARK SMILES O=C(/C=C/c1ccc(O)c(O)c1)O[C@@H]1C[C@@](O)(C(=O)O)C[C@@H](O)[C@@H]1O
REMARK SMILES IDX 2 1 1 2 13 3 14 4 21 5 22 6 16 7 24 8 15 9 23 10 18 12 19 13
REMARK SMILES IDX 20 14 17 16 25 18 3 20 4 21 5 22 12 23 6 24 10 25 7 26 8 27
REMARK SMILES IDX 11 28 9 30
REMARK H PARENT 23 11 20 15 17 17 25 19 11 29 9 31
ROOT
ATOM      1  C   UNL     1      -6.861  -0.477 -24.396  1.00  0.00     0.331 C 
ATOM      2  O   UNL     1      -7.410   0.468 -23.851  1.00  0.00    -0.247 OA
ENDROOT
BRANCH   1   3
ATOM      3  O   UNL     1      -6.837  -1.744 -23.945  1.00  0.00    -0.456 OA
BRANCH   3   4
ATOM      4  C   UNL     1      -7.985  -2.355 -23.300  1.00  0.00     0.211 C 
ATOM      5  C   UNL     1     -10.528  -2.845 -21.879  1.00  0.00     0.082 C 
ATOM      6  C   UNL     1      -9.162  -3.037 -21.198  1.00  0.00     0.150 C 
ATOM      7  C   UNL     1     -10.487  -2.786 -23.416  1.00  0.00     0.167 C 
ATOM      8  C   UNL     1      -8.115  -2.074 -21.785  1.00  0.00     0.184 C 
ATOM      9  C   UNL     1      -9.293  -2.042 -24.029  1.00  0.00     0.095 C 
BRANCH   6  10
ATOM     10  O   UNL     1      -8.701  -4.375 -21.319  1.00  0.00    -0.390 OA
ATOM     11  H   UNL     1      -8.269  -4.490 -22.184  1.00  0.00     0.211 HD
ENDBRANCH   6  10
BRANCH   7  12
ATOM     12  C   UNL     1     -10.595  -4.205 -24.015  1.00  0.00     0.335 C 
ATOM     13  O   UNL     1      -9.783  -5.105 -23.875  1.00  0.00    -0.249 OA
BRANCH  12  14
ATOM     14  O   UNL     1     -11.733  -4.353 -24.742  1.00  0.00    -0.479 OA
ATOM     15  H   UNL     1     -12.224  -3.497 -24.671  1.00  0.00     0.296 HD
ENDBRANCH  12  14
ENDBRANCH   7  12
BRANCH   7  16
ATOM     16  O   UNL     1     -11.702  -2.113 -23.859  1.00  0.00    -0.378 OA
ATOM     17  H   UNL     1     -11.445  -1.204 -24.115  1.00  0.00     0.212 HD
ENDBRANCH   7  16
BRANCH   8  18
ATOM     18  O   UNL     1      -8.585  -0.752 -21.500  1.00  0.00    -0.387 OA
ATOM     19  H   UNL     1      -9.424  -0.821 -20.996  1.00  0.00     0.211 HD
ENDBRANCH   8  18
ENDBRANCH   3   4
ENDBRANCH   1   3
BRANCH   1  20
ATOM     20  C   UNL     1      -6.120  -0.327 -25.665  1.00  0.00     0.094 C 
ATOM     21  C   UNL     1      -4.782  -0.263 -25.755  1.00  0.00     0.016 C 
BRANCH  21  22
ATOM     22  C   UNL     1      -4.051  -0.120 -27.024  1.00  0.00    -0.021 A 
ATOM     23  C   UNL     1      -4.356  -0.996 -28.077  1.00  0.00     0.058 A 
ATOM     24  C   UNL     1      -3.022   0.822 -27.194  1.00  0.00     0.012 A 
ATOM     25  C   UNL     1      -3.660  -0.900 -29.278  1.00  0.00     0.157 A 
ATOM     26  C   UNL     1      -2.328   0.911 -28.404  1.00  0.00     0.051 A 
ATOM     27  C   UNL     1      -2.656   0.049 -29.438  1.00  0.00     0.157 A 
BRANCH  25  28
ATOM     28  O   UNL     1      -3.927  -1.725 -30.337  1.00  0.00    -0.504 OA
ATOM     29  H   UNL     1      -3.314  -1.504 -31.059  1.00  0.00     0.293 HD
ENDBRANCH  25  28
BRANCH  27  30
ATOM     30  O   UNL     1      -1.977   0.135 -30.618  1.00  0.00    -0.504 OA
ATOM     31  H   UNL     1      -2.198   1.023 -30.964  1.00  0.00     0.293 HD
ENDBRANCH  27  30
ENDBRANCH  21  22
ENDBRANCH   1  20
TORSDOF 11
ENDMDL
