MODEL 1
REMARK VINA RESULT:      -8.8      0.000      0.000
REMARK SMILES O=C(/C=C/c1ccc(O)c(O)c1)O[C@@H]1[C@H](O)C[C@@](O)(C(=O)O)C[C@H]1OC(=O)/C=C/c1ccc(O)c(O)c1
REMARK SMILES IDX 17 1 15 2 14 3 24 4 23 5 18 6 16 7 19 9 20 11 21 12 22 13
REMARK SMILES IDX 13 15 2 16 1 17 3 18 4 19 5 20 12 21 6 22 10 23 7 24 8 25
REMARK SMILES IDX 11 26 9 28 25 30 26 31 27 32 28 33 29 34 30 35 37 36 31 37
REMARK SMILES IDX 35 38 32 39 33 40 36 41 34 43
REMARK H PARENT 16 8 19 10 22 14 11 27 9 29 36 42 34 44
ROOT
ATOM      1  C   UNL     1      -8.498  -2.060 -20.709  1.00  0.00     0.083 C 
ATOM      2  C   UNL     1      -7.628  -2.423 -21.909  1.00  0.00     0.162 C 
ATOM      3  C   UNL     1      -7.557  -1.264 -22.918  1.00  0.00     0.246 C 
ATOM      4  C   UNL     1      -8.966  -0.842 -23.381  1.00  0.00     0.223 C 
ATOM      5  C   UNL     1      -9.859  -0.505 -22.184  1.00  0.00     0.097 C 
ATOM      6  C   UNL     1      -9.905  -1.632 -21.151  1.00  0.00     0.168 C 
ENDROOT
BRANCH   2   7
ATOM      7  O   UNL     1      -8.213  -3.580 -22.530  1.00  0.00    -0.389 OA
ATOM      8  H   UNL     1      -8.496  -4.170 -21.802  1.00  0.00     0.211 HD
ENDBRANCH   2   7
BRANCH   6   9
ATOM      9  O   UNL     1     -10.622  -2.750 -21.716  1.00  0.00    -0.378 OA
ATOM     10  H   UNL     1     -11.124  -3.173 -20.979  1.00  0.00     0.212 HD
ENDBRANCH   6   9
BRANCH   6  11
ATOM     11  C   UNL     1     -10.698  -1.168 -19.921  1.00  0.00     0.335 C 
ATOM     12  O   UNL     1     -10.755  -1.764 -18.856  1.00  0.00    -0.249 OA
BRANCH  11  13
ATOM     13  O   UNL     1     -11.334   0.009 -20.154  1.00  0.00    -0.479 OA
ATOM     14  H   UNL     1     -11.370   0.125 -21.135  1.00  0.00     0.296 HD
ENDBRANCH  11  13
ENDBRANCH   6  11
BRANCH   3  15
ATOM     15  O   UNL     1      -6.806  -1.700 -24.075  1.00  0.00    -0.452 OA
BRANCH  15  16
ATOM     16  C   UNL     1      -5.769  -0.911 -24.438  1.00  0.00     0.331 C 
ATOM     17  O   UNL     1      -5.170  -0.132 -23.717  1.00  0.00    -0.247 OA
BRANCH  16  18
ATOM     18  C   UNL     1      -5.482  -1.164 -25.863  1.00  0.00     0.094 C 
ATOM     19  C   UNL     1      -4.389  -0.629 -26.428  1.00  0.00     0.016 C 
BRANCH  19  20
ATOM     20  C   UNL     1      -4.011  -0.825 -27.835  1.00  0.00    -0.021 A 
ATOM     21  C   UNL     1      -2.916  -0.106 -28.343  1.00  0.00     0.058 A 
ATOM     22  C   UNL     1      -4.740  -1.661 -28.698  1.00  0.00     0.012 A 
ATOM     23  C   UNL     1      -2.553  -0.253 -29.678  1.00  0.00     0.157 A 
ATOM     24  C   UNL     1      -4.368  -1.803 -30.038  1.00  0.00     0.051 A 
ATOM     25  C   UNL     1      -3.275  -1.098 -30.516  1.00  0.00     0.157 A 
BRANCH  23  26
ATOM     26  O   UNL     1      -1.489   0.417 -30.218  1.00  0.00    -0.504 OA
ATOM     27  H   UNL     1      -1.745   0.738 -31.100  1.00  0.00     0.293 HD
ENDBRANCH  23  26
BRANCH  25  28
ATOM     28  O   UNL     1      -2.913  -1.235 -31.824  1.00  0.00    -0.504 OA
ATOM     29  H   UNL     1      -3.304  -0.459 -32.271  1.00  0.00     0.293 HD
ENDBRANCH  25  28
ENDBRANCH  19  20
ENDBRANCH  16  18
ENDBRANCH  15  16
ENDBRANCH   3  15
BRANCH   4  30
ATOM     30  O   UNL     1      -8.869   0.363 -24.177  1.00  0.00    -0.455 OA
BRANCH  30  31
ATOM     31  C   UNL     1      -9.325   0.294 -25.450  1.00  0.00     0.331 C 
ATOM     32  O   UNL     1     -10.402  -0.158 -25.811  1.00  0.00    -0.247 OA
BRANCH  31  33
ATOM     33  C   UNL     1      -8.346   0.837 -26.414  1.00  0.00     0.094 C 
ATOM     34  C   UNL     1      -8.252   0.454 -27.698  1.00  0.00     0.016 C 
BRANCH  34  35
ATOM     35  C   UNL     1      -7.278   1.027 -28.638  1.00  0.00    -0.021 A 
ATOM     36  C   UNL     1      -7.273   0.571 -29.966  1.00  0.00     0.058 A 
ATOM     37  C   UNL     1      -6.324   1.975 -28.232  1.00  0.00     0.012 A 
ATOM     38  C   UNL     1      -6.343   1.085 -30.866  1.00  0.00     0.157 A 
ATOM     39  C   UNL     1      -5.393   2.484 -29.142  1.00  0.00     0.051 A 
ATOM     40  C   UNL     1      -5.414   2.035 -30.452  1.00  0.00     0.157 A 
BRANCH  38  41
ATOM     41  O   UNL     1      -6.303   0.684 -32.172  1.00  0.00    -0.504 OA
ATOM     42  H   UNL     1      -5.640   1.223 -32.638  1.00  0.00     0.293 HD
ENDBRANCH  38  41
BRANCH  40  43
ATOM     43  O   UNL     1      -4.505   2.532 -31.341  1.00  0.00    -0.504 OA
ATOM     44  H   UNL     1      -4.336   3.447 -31.035  1.00  0.00     0.293 HD
ENDBRANCH  40  43
ENDBRANCH  34  35
ENDBRANCH  31  33
ENDBRANCH  30  31
ENDBRANCH   4  30
TORSDOF 16
ENDMDL
MODEL 2
REMARK VINA RESULT:      -8.7      1.835      2.598
REMARK SMILES O=C(/C=C/c1ccc(O)c(O)c1)O[C@@H]1[C@H](O)C[C@@](O)(C(=O)O)C[C@H]1OC(=O)/C=C/c1ccc(O)c(O)c1
REMARK SMILES IDX 17 1 15 2 14 3 24 4 23 5 18 6 16 7 19 9 20 11 21 12 22 13
REMARK SMILES IDX 13 15 2 16 1 17 3 18 4 19 5 20 12 21 6 22 10 23 7 24 8 25
REMARK SMILES IDX 11 26 9 28 25 30 26 31 27 32 28 33 29 34 30 35 37 36 31 37
REMARK SMILES IDX 35 38 32 39 33 40 36 41 34 43
REMARK H PARENT 16 8 19 10 22 14 11 27 9 29 36 42 34 44
ROOT
ATOM      1  C   UNL     1      -8.481  -2.183 -20.901  1.00  0.00     0.083 C 
ATOM      2  C   UNL     1      -7.613  -2.506 -22.114  1.00  0.00     0.162 C 
ATOM      3  C   UNL     1      -7.280  -1.237 -22.917  1.00  0.00     0.246 C 
ATOM      4  C   UNL     1      -8.564  -0.503 -23.354  1.00  0.00     0.223 C 
ATOM      5  C   UNL     1      -9.460  -0.200 -22.149  1.00  0.00     0.097 C 
ATOM      6  C   UNL     1      -9.763  -1.446 -21.317  1.00  0.00     0.168 C 
ENDROOT
BRANCH   2   7
ATOM      7  O   UNL     1      -8.346  -3.430 -22.935  1.00  0.00    -0.389 OA
ATOM      8  H   UNL     1      -9.295  -3.249 -22.773  1.00  0.00     0.211 HD
ENDBRANCH   2   7
BRANCH   6   9
ATOM      9  O   UNL     1     -10.625  -2.317 -22.081  1.00  0.00    -0.378 OA
ATOM     10  H   UNL     1     -11.228  -2.762 -21.439  1.00  0.00     0.212 HD
ENDBRANCH   6   9
BRANCH   6  11
ATOM     11  C   UNL     1     -10.541  -1.044 -20.056  1.00  0.00     0.335 C 
ATOM     12  O   UNL     1     -10.626  -1.714 -19.039  1.00  0.00    -0.249 OA
BRANCH  11  13
ATOM     13  O   UNL     1     -11.129   0.172 -20.201  1.00  0.00    -0.479 OA
ATOM     14  H   UNL     1     -10.455   0.768 -20.612  1.00  0.00     0.296 HD
ENDBRANCH  11  13
ENDBRANCH   6  11
BRANCH   3  15
ATOM     15  O   UNL     1      -6.544  -1.616 -24.102  1.00  0.00    -0.452 OA
BRANCH  15  16
ATOM     16  C   UNL     1      -5.498  -0.822 -24.428  1.00  0.00     0.331 C 
ATOM     17  O   UNL     1      -4.976   0.012 -23.708  1.00  0.00    -0.247 OA
BRANCH  16  18
ATOM     18  C   UNL     1      -5.092  -1.148 -25.808  1.00  0.00     0.094 C 
ATOM     19  C   UNL     1      -4.581  -0.190 -26.596  1.00  0.00     0.016 C 
BRANCH  19  20
ATOM     20  C   UNL     1      -4.142  -0.412 -27.982  1.00  0.00    -0.021 A 
ATOM     21  C   UNL     1      -4.130   0.680 -28.866  1.00  0.00     0.058 A 
ATOM     22  C   UNL     1      -3.789  -1.685 -28.462  1.00  0.00     0.012 A 
ATOM     23  C   UNL     1      -3.744   0.492 -30.190  1.00  0.00     0.157 A 
ATOM     24  C   UNL     1      -3.403  -1.864 -29.793  1.00  0.00     0.051 A 
ATOM     25  C   UNL     1      -3.382  -0.771 -30.645  1.00  0.00     0.157 A 
BRANCH  23  26
ATOM     26  O   UNL     1      -3.707   1.525 -31.086  1.00  0.00    -0.504 OA
ATOM     27  H   UNL     1      -2.822   1.546 -31.492  1.00  0.00     0.293 HD
ENDBRANCH  23  26
BRANCH  25  28
ATOM     28  O   UNL     1      -3.005  -0.947 -31.945  1.00  0.00    -0.504 OA
ATOM     29  H   UNL     1      -3.820  -0.787 -32.461  1.00  0.00     0.293 HD
ENDBRANCH  25  28
ENDBRANCH  19  20
ENDBRANCH  16  18
ENDBRANCH  15  16
ENDBRANCH   3  15
BRANCH   4  30
ATOM     30  O   UNL     1      -8.212   0.774 -23.938  1.00  0.00    -0.455 OA
BRANCH  30  31
ATOM     31  C   UNL     1      -8.819   1.101 -25.104  1.00  0.00     0.331 C 
ATOM     32  O   UNL     1      -9.380   2.156 -25.357  1.00  0.00    -0.247 OA
BRANCH  31  33
ATOM     33  C   UNL     1      -8.741   0.003 -26.090  1.00  0.00     0.094 C 
ATOM     34  C   UNL     1      -8.104   0.086 -27.269  1.00  0.00     0.016 C 
BRANCH  34  35
ATOM     35  C   UNL     1      -8.027  -1.030 -28.222  1.00  0.00    -0.021 A 
ATOM     36  C   UNL     1      -8.420  -2.309 -27.798  1.00  0.00     0.058 A 
ATOM     37  C   UNL     1      -7.525  -0.860 -29.524  1.00  0.00     0.012 A 
ATOM     38  C   UNL     1      -8.333  -3.383 -28.679  1.00  0.00     0.157 A 
ATOM     39  C   UNL     1      -7.439  -1.945 -30.401  1.00  0.00     0.051 A 
ATOM     40  C   UNL     1      -7.847  -3.197 -29.971  1.00  0.00     0.157 A 
BRANCH  38  41
ATOM     41  O   UNL     1      -8.713  -4.647 -28.321  1.00  0.00    -0.504 OA
ATOM     42  H   UNL     1      -8.075  -5.277 -28.696  1.00  0.00     0.293 HD
ENDBRANCH  38  41
BRANCH  40  43
ATOM     43  O   UNL     1      -7.764  -4.256 -30.828  1.00  0.00    -0.504 OA
ATOM     44  H   UNL     1      -6.871  -4.626 -30.675  1.00  0.00     0.293 HD
ENDBRANCH  40  43
ENDBRANCH  34  35
ENDBRANCH  31  33
ENDBRANCH  30  31
ENDBRANCH   4  30
TORSDOF 16
ENDMDL
MODEL 3
REMARK VINA RESULT:      -8.7      2.972      4.680
REMARK SMILES O=C(/C=C/c1ccc(O)c(O)c1)O[C@@H]1[C@H](O)C[C@@](O)(C(=O)O)C[C@H]1OC(=O)/C=C/c1ccc(O)c(O)c1
REMARK SMILES IDX 17 1 15 2 14 3 24 4 23 5 18 6 16 7 19 9 20 11 21 12 22 13
REMARK SMILES IDX 13 15 2 16 1 17 3 18 4 19 5 20 12 21 6 22 10 23 7 24 8 25
REMARK SMILES IDX 11 26 9 28 25 30 26 31 27 32 28 33 29 34 30 35 37 36 31 37
REMARK SMILES IDX 35 38 32 39 33 40 36 41 34 43
REMARK H PARENT 16 8 19 10 22 14 11 27 9 29 36 42 34 44
ROOT
ATOM      1  C   UNL     1     -11.626  -3.677 -24.738  1.00  0.00     0.083 C 
ATOM      2  C   UNL     1     -10.426  -2.757 -24.525  1.00  0.00     0.162 C 
ATOM      3  C   UNL     1      -9.918  -2.182 -25.858  1.00  0.00     0.246 C 
ATOM      4  C   UNL     1      -9.565  -3.308 -26.851  1.00  0.00     0.223 C 
ATOM      5  C   UNL     1     -10.751  -4.257 -27.051  1.00  0.00     0.097 C 
ATOM      6  C   UNL     1     -11.293  -4.802 -25.729  1.00  0.00     0.168 C 
ENDROOT
BRANCH   2   7
ATOM      7  O   UNL     1      -9.393  -3.537 -23.900  1.00  0.00    -0.389 OA
ATOM      8  H   UNL     1      -9.844  -4.157 -23.293  1.00  0.00     0.211 HD
ENDBRANCH   2   7
BRANCH   6   9
ATOM      9  O   UNL     1     -10.319  -5.705 -25.165  1.00  0.00    -0.378 OA
ATOM     10  H   UNL     1     -10.773  -6.570 -25.026  1.00  0.00     0.212 HD
ENDBRANCH   6   9
BRANCH   6  11
ATOM     11  C   UNL     1     -12.562  -5.625 -25.997  1.00  0.00     0.335 C 
ATOM     12  O   UNL     1     -13.458  -5.817 -25.190  1.00  0.00    -0.249 OA
BRANCH  11  13
ATOM     13  O   UNL     1     -12.577  -6.119 -27.262  1.00  0.00    -0.479 OA
ATOM     14  H   UNL     1     -13.404  -5.783 -27.689  1.00  0.00     0.296 HD
ENDBRANCH  11  13
ENDBRANCH   6  11
BRANCH   3  15
ATOM     15  O   UNL     1      -8.727  -1.404 -25.606  1.00  0.00    -0.452 OA
BRANCH  15  16
ATOM     16  C   UNL     1      -8.878  -0.060 -25.647  1.00  0.00     0.331 C 
ATOM     17  O   UNL     1      -9.754   0.583 -25.095  1.00  0.00    -0.247 OA
BRANCH  16  18
ATOM     18  C   UNL     1      -7.790   0.495 -26.475  1.00  0.00     0.094 C 
ATOM     19  C   UNL     1      -8.019   0.795 -27.763  1.00  0.00     0.016 C 
BRANCH  19  20
ATOM     20  C   UNL     1      -7.006   1.356 -28.668  1.00  0.00    -0.021 A 
ATOM     21  C   UNL     1      -5.921   2.053 -28.113  1.00  0.00     0.058 A 
ATOM     22  C   UNL     1      -7.117   1.263 -30.067  1.00  0.00     0.012 A 
ATOM     23  C   UNL     1      -4.961   2.617 -28.949  1.00  0.00     0.157 A 
ATOM     24  C   UNL     1      -6.148   1.833 -30.899  1.00  0.00     0.051 A 
ATOM     25  C   UNL     1      -5.077   2.503 -30.331  1.00  0.00     0.157 A 
BRANCH  23  26
ATOM     26  O   UNL     1      -3.881   3.297 -28.457  1.00  0.00    -0.504 OA
ATOM     27  H   UNL     1      -3.726   3.004 -27.542  1.00  0.00     0.293 HD
ENDBRANCH  23  26
BRANCH  25  28
ATOM     28  O   UNL     1      -4.132   3.059 -31.144  1.00  0.00    -0.504 OA
ATOM     29  H   UNL     1      -3.333   3.124 -30.585  1.00  0.00     0.293 HD
ENDBRANCH  25  28
ENDBRANCH  19  20
ENDBRANCH  16  18
ENDBRANCH  15  16
ENDBRANCH   3  15
BRANCH   4  30
ATOM     30  O   UNL     1      -9.274  -2.732 -28.147  1.00  0.00    -0.455 OA
BRANCH  30  31
ATOM     31  C   UNL     1      -8.441  -3.432 -28.954  1.00  0.00     0.331 C 
ATOM     32  O   UNL     1      -8.629  -4.559 -29.387  1.00  0.00    -0.247 OA
BRANCH  31  33
ATOM     33  C   UNL     1      -7.218  -2.668 -29.274  1.00  0.00     0.094 C 
ATOM     34  C   UNL     1      -6.247  -2.384 -28.391  1.00  0.00     0.016 C 
BRANCH  34  35
ATOM     35  C   UNL     1      -5.032  -1.637 -28.743  1.00  0.00    -0.021 A 
ATOM     36  C   UNL     1      -4.674  -1.527 -30.096  1.00  0.00     0.058 A 
ATOM     37  C   UNL     1      -4.195  -1.077 -27.762  1.00  0.00     0.012 A 
ATOM     38  C   UNL     1      -3.514  -0.843 -30.448  1.00  0.00     0.157 A 
ATOM     39  C   UNL     1      -3.031  -0.394 -28.125  1.00  0.00     0.051 A 
ATOM     40  C   UNL     1      -2.703  -0.281 -29.466  1.00  0.00     0.157 A 
BRANCH  38  41
ATOM     41  O   UNL     1      -3.126  -0.698 -31.751  1.00  0.00    -0.504 OA
ATOM     42  H   UNL     1      -2.186  -0.450 -31.765  1.00  0.00     0.293 HD
ENDBRANCH  38  41
BRANCH  40  43
ATOM     43  O   UNL     1      -1.566   0.386 -29.820  1.00  0.00    -0.504 OA
ATOM     44  H   UNL     1      -1.856   1.018 -30.509  1.00  0.00     0.293 HD
ENDBRANCH  40  43
ENDBRANCH  34  35
ENDBRANCH  31  33
ENDBRANCH  30  31
ENDBRANCH   4  30
TORSDOF 16
ENDMDL
MODEL 4
REMARK VINA RESULT:      -8.6      1.272      3.831
REMARK SMILES O=C(/C=C/c1ccc(O)c(O)c1)O[C@@H]1[C@H](O)C[C@@](O)(C(=O)O)C[C@H]1OC(=O)/C=C/c1ccc(O)c(O)c1
REMARK SMILES IDX 17 1 15 2 14 3 24 4 23 5 18 6 16 7 19 9 20 11 21 12 22 13
REMARK SMILES IDX 13 15 2 16 1 17 3 18 4 19 5 20 12 21 6 22 10 23 7 24 8 25
REMARK SMILES IDX 11 26 9 28 25 30 26 31 27 32 28 33 29 34 30 35 37 36 31 37
REMARK SMILES IDX 35 38 32 39 33 40 36 41 34 43
REMARK H PARENT 16 8 19 10 22 14 11 27 9 29 36 42 34 44
ROOT
ATOM      1  C   UNL     1     -10.580  -2.498 -22.729  1.00  0.00     0.083 C 
ATOM      2  C   UNL     1     -10.544  -1.618 -23.975  1.00  0.00     0.162 C 
ATOM      3  C   UNL     1      -9.202  -1.752 -24.716  1.00  0.00     0.246 C 
ATOM      4  C   UNL     1      -8.018  -1.417 -23.787  1.00  0.00     0.223 C 
ATOM      5  C   UNL     1      -8.059  -2.273 -22.516  1.00  0.00     0.097 C 
ATOM      6  C   UNL     1      -9.403  -2.183 -21.793  1.00  0.00     0.168 C 
ENDROOT
BRANCH   2   7
ATOM      7  O   UNL     1     -10.736  -0.259 -23.548  1.00  0.00    -0.389 OA
ATOM      8  H   UNL     1      -9.916   0.002 -23.082  1.00  0.00     0.211 HD
ENDBRANCH   2   7
BRANCH   6   9
ATOM      9  O   UNL     1      -9.541  -0.860 -21.232  1.00  0.00    -0.378 OA
ATOM     10  H   UNL     1      -8.640  -0.569 -20.954  1.00  0.00     0.212 HD
ENDBRANCH   6   9
BRANCH   6  11
ATOM     11  C   UNL     1      -9.420  -3.170 -20.618  1.00  0.00     0.335 C 
ATOM     12  O   UNL     1      -9.822  -2.917 -19.493  1.00  0.00    -0.249 OA
BRANCH  11  13
ATOM     13  O   UNL     1      -8.934  -4.385 -20.981  1.00  0.00    -0.479 OA
ATOM     14  H   UNL     1      -8.358  -4.696 -20.239  1.00  0.00     0.296 HD
ENDBRANCH  11  13
ENDBRANCH   6  11
BRANCH   3  15
ATOM     15  O   UNL     1      -9.189  -0.825 -25.825  1.00  0.00    -0.452 OA
BRANCH  15  16
ATOM     16  C   UNL     1      -9.183  -1.380 -27.060  1.00  0.00     0.331 C 
ATOM     17  O   UNL     1      -9.947  -2.237 -27.467  1.00  0.00    -0.247 OA
BRANCH  16  18
ATOM     18  C   UNL     1      -8.090  -0.758 -27.832  1.00  0.00     0.094 C 
ATOM     19  C   UNL     1      -8.116   0.560 -28.082  1.00  0.00     0.016 C 
BRANCH  19  20
ATOM     20  C   UNL     1      -7.077   1.275 -28.836  1.00  0.00    -0.021 A 
ATOM     21  C   UNL     1      -6.723   0.800 -30.109  1.00  0.00     0.058 A 
ATOM     22  C   UNL     1      -6.390   2.380 -28.303  1.00  0.00     0.012 A 
ATOM     23  C   UNL     1      -5.724   1.442 -30.834  1.00  0.00     0.157 A 
ATOM     24  C   UNL     1      -5.387   3.019 -29.038  1.00  0.00     0.051 A 
ATOM     25  C   UNL     1      -5.065   2.545 -30.299  1.00  0.00     0.157 A 
BRANCH  23  26
ATOM     26  O   UNL     1      -5.351   1.024 -32.082  1.00  0.00    -0.504 OA
ATOM     27  H   UNL     1      -4.390   1.144 -32.170  1.00  0.00     0.293 HD
ENDBRANCH  23  26
BRANCH  25  28
ATOM     28  O   UNL     1      -4.085   3.169 -31.016  1.00  0.00    -0.504 OA
ATOM     29  H   UNL     1      -4.217   2.861 -31.934  1.00  0.00     0.293 HD
ENDBRANCH  25  28
ENDBRANCH  19  20
ENDBRANCH  16  18
ENDBRANCH  15  16
ENDBRANCH   3  15
BRANCH   4  30
ATOM     30  O   UNL     1      -6.776  -1.735 -24.459  1.00  0.00    -0.455 OA
BRANCH  30  31
ATOM     31  C   UNL     1      -5.853  -0.747 -24.537  1.00  0.00     0.331 C 
ATOM     32  O   UNL     1      -5.540   0.026 -23.643  1.00  0.00    -0.247 OA
BRANCH  31  33
ATOM     33  C   UNL     1      -5.232  -0.682 -25.876  1.00  0.00     0.094 C 
ATOM     34  C   UNL     1      -4.108  -0.003 -26.159  1.00  0.00     0.016 C 
BRANCH  34  35
ATOM     35  C   UNL     1      -3.504   0.028 -27.498  1.00  0.00    -0.021 A 
ATOM     36  C   UNL     1      -3.997  -0.842 -28.483  1.00  0.00     0.058 A 
ATOM     37  C   UNL     1      -2.415   0.865 -27.801  1.00  0.00     0.012 A 
ATOM     38  C   UNL     1      -3.421  -0.843 -29.751  1.00  0.00     0.157 A 
ATOM     39  C   UNL     1      -1.843   0.855 -29.076  1.00  0.00     0.051 A 
ATOM     40  C   UNL     1      -2.354   0.002 -30.041  1.00  0.00     0.157 A 
BRANCH  38  41
ATOM     41  O   UNL     1      -3.871  -1.662 -30.749  1.00  0.00    -0.504 OA
ATOM     42  H   UNL     1      -4.199  -1.107 -31.477  1.00  0.00     0.293 HD
ENDBRANCH  38  41
BRANCH  40  43
ATOM     43  O   UNL     1      -1.795  -0.007 -31.285  1.00  0.00    -0.504 OA
ATOM     44  H   UNL     1      -1.646   0.937 -31.495  1.00  0.00     0.293 HD
ENDBRANCH  40  43
ENDBRANCH  34  35
ENDBRANCH  31  33
ENDBRANCH  30  31
ENDBRANCH   4  30
TORSDOF 16
ENDMDL
MODEL 5
REMARK VINA RESULT:      -8.6      2.140      4.518
REMARK SMILES O=C(/C=C/c1ccc(O)c(O)c1)O[C@@H]1[C@H](O)C[C@@](O)(C(=O)O)C[C@H]1OC(=O)/C=C/c1ccc(O)c(O)c1
REMARK SMILES IDX 17 1 15 2 14 3 24 4 23 5 18 6 16 7 19 9 20 11 21 12 22 13
REMARK SMILES IDX 13 15 2 16 1 17 3 18 4 19 5 20 12 21 6 22 10 23 7 24 8 25
REMARK SMILES IDX 11 26 9 28 25 30 26 31 27 32 28 33 29 34 30 35 37 36 31 37
REMARK SMILES IDX 35 38 32 39 33 40 36 41 34 43
REMARK H PARENT 16 8 19 10 22 14 11 27 9 29 36 42 34 44
ROOT
ATOM      1  C   UNL     1     -10.763  -3.222 -22.706  1.00  0.00     0.083 C 
ATOM      2  C   UNL     1     -10.855  -2.769 -24.160  1.00  0.00     0.162 C 
ATOM      3  C   UNL     1      -9.459  -2.598 -24.782  1.00  0.00     0.246 C 
ATOM      4  C   UNL     1      -8.603  -1.610 -23.964  1.00  0.00     0.223 C 
ATOM      5  C   UNL     1      -8.527  -2.036 -22.494  1.00  0.00     0.097 C 
ATOM      6  C   UNL     1      -9.909  -2.252 -21.876  1.00  0.00     0.168 C 
ENDROOT
BRANCH   2   7
ATOM      7  O   UNL     1     -11.558  -1.516 -24.177  1.00  0.00    -0.389 OA
ATOM      8  H   UNL     1     -10.911  -0.833 -23.904  1.00  0.00     0.211 HD
ENDBRANCH   2   7
BRANCH   6   9
ATOM      9  O   UNL     1     -10.567  -0.974 -21.752  1.00  0.00    -0.378 OA
ATOM     10  H   UNL     1     -11.152  -0.872 -22.540  1.00  0.00     0.212 HD
ENDBRANCH   6   9
BRANCH   6  11
ATOM     11  C   UNL     1      -9.752  -2.813 -20.455  1.00  0.00     0.335 C 
ATOM     12  O   UNL     1     -10.163  -2.276 -19.438  1.00  0.00    -0.249 OA
BRANCH  11  13
ATOM     13  O   UNL     1      -9.097  -4.002 -20.459  1.00  0.00    -0.479 OA
ATOM     14  H   UNL     1      -9.408  -4.502 -19.663  1.00  0.00     0.296 HD
ENDBRANCH  11  13
ENDBRANCH   6  11
BRANCH   3  15
ATOM     15  O   UNL     1      -9.607  -2.074 -26.121  1.00  0.00    -0.452 OA
BRANCH  15  16
ATOM     16  C   UNL     1      -9.600  -2.989 -27.118  1.00  0.00     0.331 C 
ATOM     17  O   UNL     1      -9.795  -4.186 -26.998  1.00  0.00    -0.247 OA
BRANCH  16  18
ATOM     18  C   UNL     1      -9.323  -2.282 -28.383  1.00  0.00     0.094 C 
ATOM     19  C   UNL     1      -9.503  -0.954 -28.457  1.00  0.00     0.016 C 
BRANCH  19  20
ATOM     20  C   UNL     1      -9.251  -0.156 -29.666  1.00  0.00    -0.021 A 
ATOM     21  C   UNL     1     -10.285  -0.015 -30.606  1.00  0.00     0.058 A 
ATOM     22  C   UNL     1      -7.997   0.420 -29.936  1.00  0.00     0.012 A 
ATOM     23  C   UNL     1     -10.065   0.713 -31.771  1.00  0.00     0.157 A 
ATOM     24  C   UNL     1      -7.785   1.150 -31.110  1.00  0.00     0.051 A 
ATOM     25  C   UNL     1      -8.823   1.292 -32.016  1.00  0.00     0.157 A 
BRANCH  23  26
ATOM     26  O   UNL     1     -11.043   0.888 -32.712  1.00  0.00    -0.504 OA
ATOM     27  H   UNL     1     -10.650   1.337 -33.480  1.00  0.00     0.293 HD
ENDBRANCH  23  26
BRANCH  25  28
ATOM     28  O   UNL     1      -8.615   2.003 -33.162  1.00  0.00    -0.504 OA
ATOM     29  H   UNL     1      -7.643   2.081 -33.231  1.00  0.00     0.293 HD
ENDBRANCH  25  28
ENDBRANCH  19  20
ENDBRANCH  16  18
ENDBRANCH  15  16
ENDBRANCH   3  15
BRANCH   4  30
ATOM     30  O   UNL     1      -7.246  -1.620 -24.467  1.00  0.00    -0.455 OA
BRANCH  30  31
ATOM     31  C   UNL     1      -6.714  -0.423 -24.814  1.00  0.00     0.331 C 
ATOM     32  O   UNL     1      -6.664   0.578 -24.115  1.00  0.00    -0.247 OA
BRANCH  31  33
ATOM     33  C   UNL     1      -6.177  -0.441 -26.190  1.00  0.00     0.094 C 
ATOM     34  C   UNL     1      -4.880  -0.606 -26.497  1.00  0.00     0.016 C 
BRANCH  34  35
ATOM     35  C   UNL     1      -4.378  -0.638 -27.878  1.00  0.00    -0.021 A 
ATOM     36  C   UNL     1      -4.427   0.539 -28.642  1.00  0.00     0.058 A 
ATOM     37  C   UNL     1      -3.900  -1.821 -28.466  1.00  0.00     0.012 A 
ATOM     38  C   UNL     1      -3.977   0.523 -29.959  1.00  0.00     0.157 A 
ATOM     39  C   UNL     1      -3.452  -1.828 -29.790  1.00  0.00     0.051 A 
ATOM     40  C   UNL     1      -3.492  -0.654 -30.524  1.00  0.00     0.157 A 
BRANCH  38  41
ATOM     41  O   UNL     1      -3.993   1.643 -30.743  1.00  0.00    -0.504 OA
ATOM     42  H   UNL     1      -4.688   1.538 -31.414  1.00  0.00     0.293 HD
ENDBRANCH  38  41
BRANCH  40  43
ATOM     43  O   UNL     1      -3.055  -0.661 -31.816  1.00  0.00    -0.504 OA
ATOM     44  H   UNL     1      -3.400  -1.497 -32.189  1.00  0.00     0.293 HD
ENDBRANCH  40  43
ENDBRANCH  34  35
ENDBRANCH  31  33
ENDBRANCH  30  31
ENDBRANCH   4  30
TORSDOF 16
ENDMDL
MODEL 6
REMARK VINA RESULT:      -8.4      1.529      2.000
REMARK SMILES O=C(/C=C/c1ccc(O)c(O)c1)O[C@@H]1[C@H](O)C[C@@](O)(C(=O)O)C[C@H]1OC(=O)/C=C/c1ccc(O)c(O)c1
REMARK SMILES IDX 17 1 15 2 14 3 24 4 23 5 18 6 16 7 19 9 20 11 21 12 22 13
REMARK SMILES IDX 13 15 2 16 1 17 3 18 4 19 5 20 12 21 6 22 10 23 7 24 8 25
REMARK SMILES IDX 11 26 9 28 25 30 26 31 27 32 28 33 29 34 30 35 37 36 31 37
REMARK SMILES IDX 35 38 32 39 33 40 36 41 34 43
REMARK H PARENT 16 8 19 10 22 14 11 27 9 29 36 42 34 44
ROOT
ATOM      1  C   UNL     1      -8.286  -1.776 -20.746  1.00  0.00     0.083 C 
ATOM      2  C   UNL     1      -7.379  -2.141 -21.918  1.00  0.00     0.162 C 
ATOM      3  C   UNL     1      -7.641  -1.233 -23.132  1.00  0.00     0.246 C 
ATOM      4  C   UNL     1      -9.122  -1.290 -23.559  1.00  0.00     0.223 C 
ATOM      5  C   UNL     1     -10.046  -0.956 -22.383  1.00  0.00     0.097 C 
ATOM      6  C   UNL     1      -9.766  -1.822 -21.154  1.00  0.00     0.168 C 
ENDROOT
BRANCH   2   7
ATOM      7  O   UNL     1      -7.648  -3.510 -22.260  1.00  0.00    -0.389 OA
ATOM      8  H   UNL     1      -8.622  -3.597 -22.305  1.00  0.00     0.211 HD
ENDBRANCH   2   7
BRANCH   6   9
ATOM      9  O   UNL     1     -10.172  -3.178 -21.439  1.00  0.00    -0.378 OA
ATOM     10  H   UNL     1     -10.243  -3.258 -22.420  1.00  0.00     0.212 HD
ENDBRANCH   6   9
BRANCH   6  11
ATOM     11  C   UNL     1     -10.626  -1.336 -19.979  1.00  0.00     0.335 C 
ATOM     12  O   UNL     1     -10.822  -1.959 -18.947  1.00  0.00    -0.249 OA
BRANCH  11  13
ATOM     13  O   UNL     1     -11.147  -0.106 -20.219  1.00  0.00    -0.479 OA
ATOM     14  H   UNL     1     -11.277   0.326 -19.338  1.00  0.00     0.296 HD
ENDBRANCH  11  13
ENDBRANCH   6  11
BRANCH   3  15
ATOM     15  O   UNL     1      -6.829  -1.688 -24.237  1.00  0.00    -0.452 OA
BRANCH  15  16
ATOM     16  C   UNL     1      -5.747  -0.929 -24.527  1.00  0.00     0.331 C 
ATOM     17  O   UNL     1      -5.157  -0.193 -23.756  1.00  0.00    -0.247 OA
BRANCH  16  18
ATOM     18  C   UNL     1      -5.399  -1.155 -25.943  1.00  0.00     0.094 C 
ATOM     19  C   UNL     1      -4.512  -0.350 -26.548  1.00  0.00     0.016 C 
BRANCH  19  20
ATOM     20  C   UNL     1      -4.095  -0.493 -27.951  1.00  0.00    -0.021 A 
ATOM     21  C   UNL     1      -4.159   0.632 -28.789  1.00  0.00     0.058 A 
ATOM     22  C   UNL     1      -3.689  -1.726 -28.490  1.00  0.00     0.012 A 
ATOM     23  C   UNL     1      -3.795   0.518 -30.127  1.00  0.00     0.157 A 
ATOM     24  C   UNL     1      -3.325  -1.831 -29.836  1.00  0.00     0.051 A 
ATOM     25  C   UNL     1      -3.379  -0.706 -30.642  1.00  0.00     0.157 A 
BRANCH  23  26
ATOM     26  O   UNL     1      -3.831   1.586 -30.981  1.00  0.00    -0.504 OA
ATOM     27  H   UNL     1      -3.044   2.135 -30.818  1.00  0.00     0.293 HD
ENDBRANCH  23  26
BRANCH  25  28
ATOM     28  O   UNL     1      -3.025  -0.809 -31.956  1.00  0.00    -0.504 OA
ATOM     29  H   UNL     1      -3.833  -0.569 -32.449  1.00  0.00     0.293 HD
ENDBRANCH  25  28
ENDBRANCH  19  20
ENDBRANCH  16  18
ENDBRANCH  15  16
ENDBRANCH   3  15
BRANCH   4  30
ATOM     30  O   UNL     1      -9.368  -0.289 -24.575  1.00  0.00    -0.455 OA
BRANCH  30  31
ATOM     31  C   UNL     1     -10.248  -0.613 -25.552  1.00  0.00     0.331 C 
ATOM     32  O   UNL     1     -11.328  -1.165 -25.402  1.00  0.00    -0.247 OA
BRANCH  31  33
ATOM     33  C   UNL     1      -9.751  -0.222 -26.888  1.00  0.00     0.094 C 
ATOM     34  C   UNL     1     -10.119  -0.813 -28.037  1.00  0.00     0.016 C 
BRANCH  34  35
ATOM     35  C   UNL     1      -9.622  -0.389 -29.353  1.00  0.00    -0.021 A 
ATOM     36  C   UNL     1     -10.539  -0.232 -30.404  1.00  0.00     0.058 A 
ATOM     37  C   UNL     1      -8.252  -0.190 -29.600  1.00  0.00     0.012 A 
ATOM     38  C   UNL     1     -10.084   0.146 -31.664  1.00  0.00     0.157 A 
ATOM     39  C   UNL     1      -7.805   0.187 -30.869  1.00  0.00     0.051 A 
ATOM     40  C   UNL     1      -8.726   0.355 -31.889  1.00  0.00     0.157 A 
BRANCH  38  41
ATOM     41  O   UNL     1     -10.937   0.325 -32.718  1.00  0.00    -0.504 OA
ATOM     42  H   UNL     1     -11.850   0.276 -32.386  1.00  0.00     0.293 HD
ENDBRANCH  38  41
BRANCH  40  43
ATOM     43  O   UNL     1      -8.289   0.723 -33.128  1.00  0.00    -0.504 OA
ATOM     44  H   UNL     1      -8.572   1.656 -33.222  1.00  0.00     0.293 HD
ENDBRANCH  40  43
ENDBRANCH  34  35
ENDBRANCH  31  33
ENDBRANCH  30  31
ENDBRANCH   4  30
TORSDOF 16
ENDMDL
MODEL 7
REMARK VINA RESULT:      -8.4      2.101      4.188
REMARK SMILES O=C(/C=C/c1ccc(O)c(O)c1)O[C@@H]1[C@H](O)C[C@@](O)(C(=O)O)C[C@H]1OC(=O)/C=C/c1ccc(O)c(O)c1
REMARK SMILES IDX 17 1 15 2 14 3 24 4 23 5 18 6 16 7 19 9 20 11 21 12 22 13
REMARK SMILES IDX 13 15 2 16 1 17 3 18 4 19 5 20 12 21 6 22 10 23 7 24 8 25
REMARK SMILES IDX 11 26 9 28 25 30 26 31 27 32 28 33 29 34 30 35 37 36 31 37
REMARK SMILES IDX 35 38 32 39 33 40 36 41 34 43
REMARK H PARENT 16 8 19 10 22 14 11 27 9 29 36 42 34 44
ROOT
ATOM      1  C   UNL     1      -9.956  -1.671 -22.211  1.00  0.00     0.083 C 
ATOM      2  C   UNL     1      -9.648  -0.271 -22.735  1.00  0.00     0.162 C 
ATOM      3  C   UNL     1      -8.530  -0.304 -23.792  1.00  0.00     0.246 C 
ATOM      4  C   UNL     1      -7.254  -0.963 -23.231  1.00  0.00     0.223 C 
ATOM      5  C   UNL     1      -7.555  -2.358 -22.673  1.00  0.00     0.097 C 
ATOM      6  C   UNL     1      -8.695  -2.346 -21.653  1.00  0.00     0.168 C 
ENDROOT
BRANCH   2   7
ATOM      7  O   UNL     1      -9.240   0.528 -21.612  1.00  0.00    -0.389 OA
ATOM      8  H   UNL     1      -9.865   0.323 -20.887  1.00  0.00     0.211 HD
ENDBRANCH   2   7
BRANCH   6   9
ATOM      9  O   UNL     1      -8.243  -1.671 -20.460  1.00  0.00    -0.378 OA
ATOM     10  H   UNL     1      -8.009  -0.748 -20.721  1.00  0.00     0.212 HD
ENDBRANCH   6   9
BRANCH   6  11
ATOM     11  C   UNL     1      -9.034  -3.788 -21.249  1.00  0.00     0.335 C 
ATOM     12  O   UNL     1      -8.982  -4.757 -21.990  1.00  0.00    -0.249 OA
BRANCH  11  13
ATOM     13  O   UNL     1      -9.399  -3.866 -19.943  1.00  0.00    -0.479 OA
ATOM     14  H   UNL     1      -9.303  -2.956 -19.565  1.00  0.00     0.296 HD
ENDBRANCH  11  13
ENDBRANCH   6  11
BRANCH   3  15
ATOM     15  O   UNL     1      -8.213   1.053 -24.175  1.00  0.00    -0.452 OA
BRANCH  15  16
ATOM     16  C   UNL     1      -8.466   1.378 -25.465  1.00  0.00     0.331 C 
ATOM     17  O   UNL     1      -8.655   2.499 -25.901  1.00  0.00    -0.247 OA
BRANCH  16  18
ATOM     18  C   UNL     1      -8.465   0.132 -26.255  1.00  0.00     0.094 C 
ATOM     19  C   UNL     1      -8.099   0.162 -27.546  1.00  0.00     0.016 C 
BRANCH  19  20
ATOM     20  C   UNL     1      -8.059  -1.022 -28.417  1.00  0.00    -0.021 A 
ATOM     21  C   UNL     1      -8.500  -2.251 -27.900  1.00  0.00     0.058 A 
ATOM     22  C   UNL     1      -7.547  -0.973 -29.725  1.00  0.00     0.012 A 
ATOM     23  C   UNL     1      -8.449  -3.393 -28.695  1.00  0.00     0.157 A 
ATOM     24  C   UNL     1      -7.499  -2.125 -30.516  1.00  0.00     0.051 A 
ATOM     25  C   UNL     1      -7.953  -3.325 -29.994  1.00  0.00     0.157 A 
BRANCH  23  26
ATOM     26  O   UNL     1      -8.875  -4.611 -28.241  1.00  0.00    -0.504 OA
ATOM     27  H   UNL     1      -9.138  -5.148 -29.009  1.00  0.00     0.293 HD
ENDBRANCH  23  26
BRANCH  25  28
ATOM     28  O   UNL     1      -7.905  -4.449 -30.766  1.00  0.00    -0.504 OA
ATOM     29  H   UNL     1      -7.121  -4.936 -30.444  1.00  0.00     0.293 HD
ENDBRANCH  25  28
ENDBRANCH  19  20
ENDBRANCH  16  18
ENDBRANCH  15  16
ENDBRANCH   3  15
BRANCH   4  30
ATOM     30  O   UNL     1      -6.297  -1.145 -24.302  1.00  0.00    -0.455 OA
BRANCH  30  31
ATOM     31  C   UNL     1      -5.284  -0.248 -24.376  1.00  0.00     0.331 C 
ATOM     32  O   UNL     1      -4.781   0.355 -23.440  1.00  0.00    -0.247 OA
BRANCH  31  33
ATOM     33  C   UNL     1      -4.826  -0.052 -25.767  1.00  0.00     0.094 C 
ATOM     34  C   UNL     1      -4.626  -1.046 -26.647  1.00  0.00     0.016 C 
BRANCH  34  35
ATOM     35  C   UNL     1      -4.186  -0.819 -28.031  1.00  0.00    -0.021 A 
ATOM     36  C   UNL     1      -4.199   0.490 -28.538  1.00  0.00     0.058 A 
ATOM     37  C   UNL     1      -3.806  -1.879 -28.872  1.00  0.00     0.012 A 
ATOM     38  C   UNL     1      -3.809   0.722 -29.853  1.00  0.00     0.157 A 
ATOM     39  C   UNL     1      -3.417  -1.637 -30.192  1.00  0.00     0.051 A 
ATOM     40  C   UNL     1      -3.420  -0.337 -30.670  1.00  0.00     0.157 A 
BRANCH  38  41
ATOM     41  O   UNL     1      -3.792   1.978 -30.393  1.00  0.00    -0.504 OA
ATOM     42  H   UNL     1      -4.693   2.200 -30.682  1.00  0.00     0.293 HD
ENDBRANCH  38  41
BRANCH  40  43
ATOM     43  O   UNL     1      -3.040  -0.100 -31.959  1.00  0.00    -0.504 OA
ATOM     44  H   UNL     1      -2.577   0.761 -31.926  1.00  0.00     0.293 HD
ENDBRANCH  40  43
ENDBRANCH  34  35
ENDBRANCH  31  33
ENDBRANCH  30  31
ENDBRANCH   4  30
TORSDOF 16
ENDMDL
MODEL 8
REMARK VINA RESULT:      -8.4      2.168      2.982
REMARK SMILES O=C(/C=C/c1ccc(O)c(O)c1)O[C@@H]1[C@H](O)C[C@@](O)(C(=O)O)C[C@H]1OC(=O)/C=C/c1ccc(O)c(O)c1
REMARK SMILES IDX 17 1 15 2 14 3 24 4 23 5 18 6 16 7 19 9 20 11 21 12 22 13
REMARK SMILES IDX 13 15 2 16 1 17 3 18 4 19 5 20 12 21 6 22 10 23 7 24 8 25
REMARK SMILES IDX 11 26 9 28 25 30 26 31 27 32 28 33 29 34 30 35 37 36 31 37
REMARK SMILES IDX 35 38 32 39 33 40 36 41 34 43
REMARK H PARENT 16 8 19 10 22 14 11 27 9 29 36 42 34 44
ROOT
ATOM      1  C   UNL     1      -8.044  -1.508 -21.872  1.00  0.00     0.083 C 
ATOM      2  C   UNL     1      -7.493  -1.154 -23.251  1.00  0.00     0.162 C 
ATOM      3  C   UNL     1      -8.605  -1.147 -24.313  1.00  0.00     0.246 C 
ATOM      4  C   UNL     1      -9.341  -2.502 -24.358  1.00  0.00     0.223 C 
ATOM      5  C   UNL     1      -9.873  -2.884 -22.973  1.00  0.00     0.097 C 
ATOM      6  C   UNL     1      -8.785  -2.853 -21.899  1.00  0.00     0.168 C 
ENDROOT
BRANCH   2   7
ATOM      7  O   UNL     1      -6.502  -2.141 -23.584  1.00  0.00    -0.389 OA
ATOM      8  H   UNL     1      -5.810  -1.674 -24.095  1.00  0.00     0.211 HD
ENDBRANCH   2   7
BRANCH   6   9
ATOM      9  O   UNL     1      -7.863  -3.936 -22.141  1.00  0.00    -0.378 OA
ATOM     10  H   UNL     1      -8.126  -4.355 -22.994  1.00  0.00     0.212 HD
ENDBRANCH   6   9
BRANCH   6  11
ATOM     11  C   UNL     1      -9.417  -3.104 -20.522  1.00  0.00     0.335 C 
ATOM     12  O   UNL     1     -10.177  -2.339 -19.948  1.00  0.00    -0.249 OA
BRANCH  11  13
ATOM     13  O   UNL     1      -9.034  -4.301 -20.010  1.00  0.00    -0.479 OA
ATOM     14  H   UNL     1      -8.135  -4.171 -19.619  1.00  0.00     0.296 HD
ENDBRANCH  11  13
ENDBRANCH   6  11
BRANCH   3  15
ATOM     15  O   UNL     1      -8.011  -0.906 -25.608  1.00  0.00    -0.452 OA
BRANCH  15  16
ATOM     16  C   UNL     1      -7.783   0.390 -25.923  1.00  0.00     0.331 C 
ATOM     17  O   UNL     1      -8.184   1.361 -25.306  1.00  0.00    -0.247 OA
BRANCH  16  18
ATOM     18  C   UNL     1      -6.956   0.424 -27.144  1.00  0.00     0.094 C 
ATOM     19  C   UNL     1      -5.965  -0.468 -27.302  1.00  0.00     0.016 C 
BRANCH  19  20
ATOM     20  C   UNL     1      -5.089  -0.523 -28.481  1.00  0.00    -0.021 A 
ATOM     21  C   UNL     1      -5.025   0.600 -29.323  1.00  0.00     0.058 A 
ATOM     22  C   UNL     1      -4.359  -1.675 -28.821  1.00  0.00     0.012 A 
ATOM     23  C   UNL     1      -4.223   0.565 -30.460  1.00  0.00     0.157 A 
ATOM     24  C   UNL     1      -3.557  -1.701 -29.965  1.00  0.00     0.051 A 
ATOM     25  C   UNL     1      -3.494  -0.578 -30.774  1.00  0.00     0.157 A 
BRANCH  23  26
ATOM     26  O   UNL     1      -4.120   1.636 -31.306  1.00  0.00    -0.504 OA
ATOM     27  H   UNL     1      -3.199   1.950 -31.290  1.00  0.00     0.293 HD
ENDBRANCH  23  26
BRANCH  25  28
ATOM     28  O   UNL     1      -2.711  -0.603 -31.891  1.00  0.00    -0.504 OA
ATOM     29  H   UNL     1      -3.344  -0.617 -32.636  1.00  0.00     0.293 HD
ENDBRANCH  25  28
ENDBRANCH  19  20
ENDBRANCH  16  18
ENDBRANCH  15  16
ENDBRANCH   3  15
BRANCH   4  30
ATOM     30  O   UNL     1     -10.493  -2.395 -25.228  1.00  0.00    -0.455 OA
BRANCH  30  31
ATOM     31  C   UNL     1     -10.461  -3.113 -26.376  1.00  0.00     0.331 C 
ATOM     32  O   UNL     1     -10.643  -4.317 -26.483  1.00  0.00    -0.247 OA
BRANCH  31  33
ATOM     33  C   UNL     1     -10.163  -2.263 -27.546  1.00  0.00     0.094 C 
ATOM     34  C   UNL     1      -9.248  -2.556 -28.484  1.00  0.00     0.016 C 
BRANCH  34  35
ATOM     35  C   UNL     1      -8.987  -1.699 -29.649  1.00  0.00    -0.021 A 
ATOM     36  C   UNL     1      -9.981  -0.799 -30.063  1.00  0.00     0.058 A 
ATOM     37  C   UNL     1      -7.794  -1.793 -30.386  1.00  0.00     0.012 A 
ATOM     38  C   UNL     1      -9.761   0.005 -31.177  1.00  0.00     0.157 A 
ATOM     39  C   UNL     1      -7.583  -0.983 -31.506  1.00  0.00     0.051 A 
ATOM     40  C   UNL     1      -8.568  -0.089 -31.889  1.00  0.00     0.157 A 
BRANCH  38  41
ATOM     41  O   UNL     1     -10.692   0.906 -31.616  1.00  0.00    -0.504 OA
ATOM     42  H   UNL     1     -10.242   1.750 -31.794  1.00  0.00     0.293 HD
ENDBRANCH  38  41
BRANCH  40  43
ATOM     43  O   UNL     1      -8.362   0.702 -32.982  1.00  0.00    -0.504 OA
ATOM     44  H   UNL     1      -9.105   1.339 -32.969  1.00  0.00     0.293 HD
ENDBRANCH  40  43
ENDBRANCH  34  35
ENDBRANCH  31  33
ENDBRANCH  30  31
ENDBRANCH   4  30
TORSDOF 16
ENDMDL
MODEL 9
REMARK VINA RESULT:      -8.2      3.456      5.590
REMARK SMILES O=C(/C=C/c1ccc(O)c(O)c1)O[C@@H]1[C@H](O)C[C@@](O)(C(=O)O)C[C@H]1OC(=O)/C=C/c1ccc(O)c(O)c1
REMARK SMILES IDX 17 1 15 2 14 3 24 4 23 5 18 6 16 7 19 9 20 11 21 12 22 13
REMARK SMILES IDX 13 15 2 16 1 17 3 18 4 19 5 20 12 21 6 22 10 23 7 24 8 25
REMARK SMILES IDX 11 26 9 28 25 30 26 31 27 32 28 33 29 34 30 35 37 36 31 37
REMARK SMILES IDX 35 38 32 39 33 40 36 41 34 43
REMARK H PARENT 16 8 19 10 22 14 11 27 9 29 36 42 34 44
ROOT
ATOM      1  C   UNL     1     -11.675  -3.494 -25.095  1.00  0.00     0.083 C 
ATOM      2  C   UNL     1     -10.458  -2.573 -25.074  1.00  0.00     0.162 C 
ATOM      3  C   UNL     1      -9.991  -2.232 -26.500  1.00  0.00     0.246 C 
ATOM      4  C   UNL     1      -9.686  -3.510 -27.306  1.00  0.00     0.223 C 
ATOM      5  C   UNL     1     -10.889  -4.458 -27.310  1.00  0.00     0.097 C 
ATOM      6  C   UNL     1     -11.391  -4.772 -25.900  1.00  0.00     0.168 C 
ENDROOT
BRANCH   2   7
ATOM      7  O   UNL     1      -9.413  -3.258 -24.365  1.00  0.00    -0.389 OA
ATOM      8  H   UNL     1      -8.721  -2.590 -24.181  1.00  0.00     0.211 HD
ENDBRANCH   2   7
BRANCH   6   9
ATOM      9  O   UNL     1     -10.408  -5.587 -25.227  1.00  0.00    -0.378 OA
ATOM     10  H   UNL     1     -10.738  -6.517 -25.253  1.00  0.00     0.212 HD
ENDBRANCH   6   9
BRANCH   6  11
ATOM     11  C   UNL     1     -12.677  -5.605 -25.988  1.00  0.00     0.335 C 
ATOM     12  O   UNL     1     -13.516  -5.699 -25.105  1.00  0.00    -0.249 OA
BRANCH  11  13
ATOM     13  O   UNL     1     -12.783  -6.233 -27.187  1.00  0.00    -0.479 OA
ATOM     14  H   UNL     1     -13.176  -7.123 -27.010  1.00  0.00     0.296 HD
ENDBRANCH  11  13
ENDBRANCH   6  11
BRANCH   3  15
ATOM     15  O   UNL     1      -8.783  -1.443 -26.416  1.00  0.00    -0.452 OA
BRANCH  15  16
ATOM     16  C   UNL     1      -8.920  -0.121 -26.671  1.00  0.00     0.331 C 
ATOM     17  O   UNL     1      -9.276   0.731 -25.877  1.00  0.00    -0.247 OA
BRANCH  16  18
ATOM     18  C   UNL     1      -8.556   0.110 -28.082  1.00  0.00     0.094 C 
ATOM     19  C   UNL     1      -9.515   0.158 -29.019  1.00  0.00     0.016 C 
BRANCH  19  20
ATOM     20  C   UNL     1      -9.259   0.388 -30.448  1.00  0.00    -0.021 A 
ATOM     21  C   UNL     1     -10.223  -0.030 -31.379  1.00  0.00     0.058 A 
ATOM     22  C   UNL     1      -8.061   0.959 -30.912  1.00  0.00     0.012 A 
ATOM     23  C   UNL     1      -9.994   0.152 -32.740  1.00  0.00     0.157 A 
ATOM     24  C   UNL     1      -7.839   1.138 -32.281  1.00  0.00     0.051 A 
ATOM     25  C   UNL     1      -8.810   0.734 -33.183  1.00  0.00     0.157 A 
BRANCH  23  26
ATOM     26  O   UNL     1     -10.906  -0.228 -33.686  1.00  0.00    -0.504 OA
ATOM     27  H   UNL     1     -11.600   0.452 -33.732  1.00  0.00     0.293 HD
ENDBRANCH  23  26
BRANCH  25  28
ATOM     28  O   UNL     1      -8.592   0.908 -34.519  1.00  0.00    -0.504 OA
ATOM     29  H   UNL     1      -9.445   0.683 -34.939  1.00  0.00     0.293 HD
ENDBRANCH  25  28
ENDBRANCH  19  20
ENDBRANCH  16  18
ENDBRANCH  15  16
ENDBRANCH   3  15
BRANCH   4  30
ATOM     30  O   UNL     1      -9.434  -3.158 -28.688  1.00  0.00    -0.455 OA
BRANCH  30  31
ATOM     31  C   UNL     1      -8.483  -3.870 -29.337  1.00  0.00     0.331 C 
ATOM     32  O   UNL     1      -8.653  -4.907 -29.961  1.00  0.00    -0.247 OA
BRANCH  31  33
ATOM     33  C   UNL     1      -7.148  -3.249 -29.207  1.00  0.00     0.094 C 
ATOM     34  C   UNL     1      -6.765  -2.133 -29.848  1.00  0.00     0.016 C 
BRANCH  34  35
ATOM     35  C   UNL     1      -5.436  -1.528 -29.684  1.00  0.00    -0.021 A 
ATOM     36  C   UNL     1      -4.887  -0.803 -30.753  1.00  0.00     0.058 A 
ATOM     37  C   UNL     1      -4.683  -1.700 -28.510  1.00  0.00     0.012 A 
ATOM     38  C   UNL     1      -3.619  -0.242 -30.625  1.00  0.00     0.157 A 
ATOM     39  C   UNL     1      -3.410  -1.134 -28.392  1.00  0.00     0.051 A 
ATOM     40  C   UNL     1      -2.891  -0.408 -29.450  1.00  0.00     0.157 A 
BRANCH  38  41
ATOM     41  O   UNL     1      -3.043   0.482 -31.632  1.00  0.00    -0.504 OA
ATOM     42  H   UNL     1      -3.734   1.020 -32.056  1.00  0.00     0.293 HD
ENDBRANCH  38  41
BRANCH  40  43
ATOM     43  O   UNL     1      -1.649   0.144 -29.334  1.00  0.00    -0.504 OA
ATOM     44  H   UNL     1      -1.180  -0.434 -28.698  1.00  0.00     0.293 HD
ENDBRANCH  40  43
ENDBRANCH  34  35
ENDBRANCH  31  33
ENDBRANCH  30  31
ENDBRANCH   4  30
TORSDOF 16
ENDMDL
MODEL 10
REMARK VINA RESULT:      -8.1      2.559      9.204
REMARK SMILES O=C(/C=C/c1ccc(O)c(O)c1)O[C@@H]1[C@H](O)C[C@@](O)(C(=O)O)C[C@H]1OC(=O)/C=C/c1ccc(O)c(O)c1
REMARK SMILES IDX 17 1 15 2 14 3 24 4 23 5 18 6 16 7 19 9 20 11 21 12 22 13
REMARK SMILES IDX 13 15 2 16 1 17 3 18 4 19 5 20 12 21 6 22 10 23 7 24 8 25
REMARK SMILES IDX 11 26 9 28 25 30 26 31 27 32 28 33 29 34 30 35 37 36 31 37
REMARK SMILES IDX 35 38 32 39 33 40 36 41 34 43
REMARK H PARENT 16 8 19 10 22 14 11 27 9 29 36 42 34 44
ROOT
ATOM      1  C   UNL     1      -3.377   0.332 -29.150  1.00  0.00     0.083 C 
ATOM      2  C   UNL     1      -4.080   0.514 -27.808  1.00  0.00     0.162 C 
ATOM      3  C   UNL     1      -5.306  -0.408 -27.689  1.00  0.00     0.246 C 
ATOM      4  C   UNL     1      -6.293  -0.174 -28.851  1.00  0.00     0.223 C 
ATOM      5  C   UNL     1      -5.592  -0.323 -30.205  1.00  0.00     0.097 C 
ATOM      6  C   UNL     1      -4.346   0.556 -30.320  1.00  0.00     0.168 C 
ENDROOT
BRANCH   2   7
ATOM      7  O   UNL     1      -4.489   1.889 -27.720  1.00  0.00    -0.389 OA
ATOM      8  H   UNL     1      -3.945   2.381 -28.368  1.00  0.00     0.211 HD
ENDBRANCH   2   7
BRANCH   6   9
ATOM      9  O   UNL     1      -4.758   1.939 -30.381  1.00  0.00    -0.378 OA
ATOM     10  H   UNL     1      -4.715   2.211 -31.329  1.00  0.00     0.212 HD
ENDBRANCH   6   9
BRANCH   6  11
ATOM     11  C   UNL     1      -3.621   0.248 -31.638  1.00  0.00     0.335 C 
ATOM     12  O   UNL     1      -3.033  -0.792 -31.890  1.00  0.00    -0.249 OA
BRANCH  11  13
ATOM     13  O   UNL     1      -3.718   1.282 -32.513  1.00  0.00    -0.479 OA
ATOM     14  H   UNL     1      -4.335   0.992 -33.230  1.00  0.00     0.296 HD
ENDBRANCH  11  13
ENDBRANCH   6  11
BRANCH   3  15
ATOM     15  O   UNL     1      -5.986  -0.121 -26.446  1.00  0.00    -0.452 OA
BRANCH  15  16
ATOM     16  C   UNL     1      -6.009  -1.124 -25.539  1.00  0.00     0.331 C 
ATOM     17  O   UNL     1      -5.282  -2.102 -25.529  1.00  0.00    -0.247 OA
BRANCH  16  18
ATOM     18  C   UNL     1      -7.066  -0.824 -24.555  1.00  0.00     0.094 C 
ATOM     19  C   UNL     1      -7.222  -1.614 -23.482  1.00  0.00     0.016 C 
BRANCH  19  20
ATOM     20  C   UNL     1      -8.240  -1.399 -22.443  1.00  0.00    -0.021 A 
ATOM     21  C   UNL     1      -8.510  -2.442 -21.542  1.00  0.00     0.058 A 
ATOM     22  C   UNL     1      -8.985  -0.210 -22.358  1.00  0.00     0.012 A 
ATOM     23  C   UNL     1      -9.487  -2.274 -20.565  1.00  0.00     0.157 A 
ATOM     24  C   UNL     1      -9.965  -0.051 -21.374  1.00  0.00     0.051 A 
ATOM     25  C   UNL     1     -10.205  -1.084 -20.484  1.00  0.00     0.157 A 
BRANCH  23  26
ATOM     26  O   UNL     1      -9.781  -3.255 -19.658  1.00  0.00    -0.504 OA
ATOM     27  H   UNL     1      -9.860  -2.845 -18.779  1.00  0.00     0.293 HD
ENDBRANCH  23  26
BRANCH  25  28
ATOM     28  O   UNL     1     -11.162  -0.928 -19.523  1.00  0.00    -0.504 OA
ATOM     29  H   UNL     1     -11.690  -1.750 -19.566  1.00  0.00     0.293 HD
ENDBRANCH  25  28
ENDBRANCH  19  20
ENDBRANCH  16  18
ENDBRANCH  15  16
ENDBRANCH   3  15
BRANCH   4  30
ATOM     30  O   UNL     1      -7.331  -1.182 -28.810  1.00  0.00    -0.455 OA
BRANCH  30  31
ATOM     31  C   UNL     1      -8.589  -0.776 -29.104  1.00  0.00     0.331 C 
ATOM     32  O   UNL     1      -8.900   0.117 -29.878  1.00  0.00    -0.247 OA
BRANCH  31  33
ATOM     33  C   UNL     1      -9.603  -1.548 -28.357  1.00  0.00     0.094 C 
ATOM     34  C   UNL     1      -9.413  -2.067 -27.134  1.00  0.00     0.016 C 
BRANCH  34  35
ATOM     35  C   UNL     1     -10.448  -2.816 -26.408  1.00  0.00    -0.021 A 
ATOM     36  C   UNL     1     -10.550  -2.654 -25.017  1.00  0.00     0.058 A 
ATOM     37  C   UNL     1     -11.300  -3.725 -27.059  1.00  0.00     0.012 A 
ATOM     38  C   UNL     1     -11.509  -3.372 -24.310  1.00  0.00     0.157 A 
ATOM     39  C   UNL     1     -12.258  -4.443 -26.339  1.00  0.00     0.051 A 
ATOM     40  C   UNL     1     -12.356  -4.258 -24.970  1.00  0.00     0.157 A 
BRANCH  38  41
ATOM     41  O   UNL     1     -11.658  -3.243 -22.956  1.00  0.00    -0.504 OA
ATOM     42  H   UNL     1     -12.586  -3.426 -22.731  1.00  0.00     0.293 HD
ENDBRANCH  38  41
BRANCH  40  43
ATOM     43  O   UNL     1     -13.292  -4.960 -24.268  1.00  0.00    -0.504 OA
ATOM     44  H   UNL     1     -14.106  -4.895 -24.809  1.00  0.00     0.293 HD
ENDBRANCH  40  43
ENDBRANCH  34  35
ENDBRANCH  31  33
ENDBRANCH  30  31
ENDBRANCH   4  30
TORSDOF 16
ENDMDL
