MODEL 1
REMARK VINA RESULT:      -6.1      0.000      0.000
REMARK SMILES COc1ccc(C=CC(=O)O)c(OC)c1
REMARK SMILES IDX 7 1 8 2 6 3 3 4 15 5 4 6 12 7 5 8 2 9 1 10 13 11 14 12 9 13
REMARK SMILES IDX 10 14 11 15
REMARK H PARENT 11 16
ROOT
ATOM      1  C   UNL     1      -8.517  -0.659 -32.250  1.00  0.00     0.019 C 
ATOM      2  C   UNL     1      -9.354   0.370 -32.046  1.00  0.00     0.094 C 
ENDROOT
BRANCH   1   3
ATOM      3  C   UNL     1      -7.437  -1.021 -31.318  1.00  0.00     0.017 A 
ATOM      4  C   UNL     1      -5.292  -1.540 -29.568  1.00  0.00     0.122 A 
ATOM      5  C   UNL     1      -6.424  -2.360 -29.555  1.00  0.00     0.093 A 
ATOM      6  C   UNL     1      -5.241  -0.459 -30.446  1.00  0.00     0.047 A 
ATOM      7  C   UNL     1      -7.505  -2.100 -30.413  1.00  0.00     0.129 A 
ATOM      8  C   UNL     1      -6.302  -0.197 -31.312  1.00  0.00     0.016 A 
BRANCH   4   9
ATOM      9  O   UNL     1      -4.181  -1.685 -28.783  1.00  0.00    -0.497 OA
ATOM     10  C   UNL     1      -3.092  -0.804 -29.026  1.00  0.00     0.278 C 
ENDBRANCH   4   9
BRANCH   7  11
ATOM     11  O   UNL     1      -8.651  -2.860 -30.442  1.00  0.00    -0.496 OA
ATOM     12  C   UNL     1      -8.494  -4.272 -30.366  1.00  0.00     0.278 C 
ENDBRANCH   7  11
ENDBRANCH   1   3
BRANCH   2  13
ATOM     13  C   UNL     1     -10.419   0.646 -33.028  1.00  0.00     0.328 C 
ATOM     14  O   UNL     1     -10.847  -0.160 -33.835  1.00  0.00    -0.247 OA
BRANCH  13  15
ATOM     15  O   UNL     1     -10.872   1.912 -32.933  1.00  0.00    -0.478 OA
ATOM     16  H   UNL     1     -11.274   2.264 -33.747  1.00  0.00     0.297 HD
ENDBRANCH  13  15
ENDBRANCH   2  13
TORSDOF 5
ENDMDL
MODEL 2
REMARK VINA RESULT:      -6.1      1.349      1.604
REMARK SMILES COc1ccc(C=CC(=O)O)c(OC)c1
REMARK SMILES IDX 7 1 8 2 6 3 3 4 15 5 4 6 12 7 5 8 2 9 1 10 13 11 14 12 9 13
REMARK SMILES IDX 10 14 11 15
REMARK H PARENT 11 16
ROOT
ATOM      1  C   UNL     1      -8.412  -0.030 -32.016  1.00  0.00     0.019 C 
ATOM      2  C   UNL     1      -8.871   0.838 -32.930  1.00  0.00     0.094 C 
ENDROOT
BRANCH   1   3
ATOM      3  C   UNL     1      -7.011  -0.066 -31.566  1.00  0.00     0.017 A 
ATOM      4  C   UNL     1      -4.312   0.046 -30.769  1.00  0.00     0.122 A 
ATOM      5  C   UNL     1      -5.140  -0.977 -30.300  1.00  0.00     0.093 A 
ATOM      6  C   UNL     1      -4.836   1.014 -31.623  1.00  0.00     0.047 A 
ATOM      7  C   UNL     1      -6.492  -1.033 -30.680  1.00  0.00     0.129 A 
ATOM      8  C   UNL     1      -6.173   0.964 -32.017  1.00  0.00     0.016 A 
BRANCH   4   9
ATOM      9  O   UNL     1      -2.987   0.212 -30.470  1.00  0.00    -0.497 OA
ATOM     10  C   UNL     1      -2.549  -0.222 -29.188  1.00  0.00     0.278 C 
ENDBRANCH   4   9
BRANCH   7  11
ATOM     11  O   UNL     1      -7.362  -2.005 -30.247  1.00  0.00    -0.496 OA
ATOM     12  C   UNL     1      -7.530  -2.146 -28.841  1.00  0.00     0.278 C 
ENDBRANCH   7  11
ENDBRANCH   1   3
BRANCH   2  13
ATOM     13  C   UNL     1     -10.296   0.810 -33.307  1.00  0.00     0.328 C 
ATOM     14  O   UNL     1     -10.861  -0.138 -33.822  1.00  0.00    -0.247 OA
BRANCH  13  15
ATOM     15  O   UNL     1     -10.915   1.972 -33.013  1.00  0.00    -0.478 OA
ATOM     16  H   UNL     1     -11.842   2.026 -33.304  1.00  0.00     0.297 HD
ENDBRANCH  13  15
ENDBRANCH   2  13
TORSDOF 5
ENDMDL
MODEL 3
REMARK VINA RESULT:      -6.1      2.053      2.492
REMARK SMILES COc1ccc(C=CC(=O)O)c(OC)c1
REMARK SMILES IDX 7 1 8 2 6 3 3 4 15 5 4 6 12 7 5 8 2 9 1 10 13 11 14 12 9 13
REMARK SMILES IDX 10 14 11 15
REMARK H PARENT 11 16
ROOT
ATOM      1  C   UNL     1      -8.602   0.997 -31.562  1.00  0.00     0.019 C 
ATOM      2  C   UNL     1      -8.878   1.003 -32.875  1.00  0.00     0.094 C 
ENDROOT
BRANCH   1   3
ATOM      3  C   UNL     1      -7.238   1.119 -31.021  1.00  0.00     0.017 A 
ATOM      4  C   UNL     1      -4.675   1.530 -29.929  1.00  0.00     0.122 A 
ATOM      5  C   UNL     1      -5.089   0.243 -30.284  1.00  0.00     0.093 A 
ATOM      6  C   UNL     1      -5.545   2.603 -30.111  1.00  0.00     0.047 A 
ATOM      7  C   UNL     1      -6.371   0.025 -30.815  1.00  0.00     0.129 A 
ATOM      8  C   UNL     1      -6.816   2.403 -30.649  1.00  0.00     0.016 A 
BRANCH   4   9
ATOM      9  O   UNL     1      -3.459   1.869 -29.402  1.00  0.00    -0.497 OA
ATOM     10  C   UNL     1      -3.404   3.037 -28.592  1.00  0.00     0.278 C 
ENDBRANCH   4   9
BRANCH   7  11
ATOM     11  O   UNL     1      -6.844  -1.215 -31.173  1.00  0.00    -0.496 OA
ATOM     12  C   UNL     1      -7.048  -2.158 -30.127  1.00  0.00     0.278 C 
ENDBRANCH   7  11
ENDBRANCH   1   3
BRANCH   2  13
ATOM     13  C   UNL     1     -10.279   0.893 -33.322  1.00  0.00     0.328 C 
ATOM     14  O   UNL     1     -10.759  -0.081 -33.873  1.00  0.00    -0.247 OA
BRANCH  13  15
ATOM     15  O   UNL     1     -10.981   2.012 -33.050  1.00  0.00    -0.478 OA
ATOM     16  H   UNL     1     -10.661   2.815 -33.498  1.00  0.00     0.297 HD
ENDBRANCH  13  15
ENDBRANCH   2  13
TORSDOF 5
ENDMDL
MODEL 4
REMARK VINA RESULT:      -5.9      2.176      4.431
REMARK SMILES COc1ccc(C=CC(=O)O)c(OC)c1
REMARK SMILES IDX 7 1 8 2 6 3 3 4 15 5 4 6 12 7 5 8 2 9 1 10 13 11 14 12 9 13
REMARK SMILES IDX 10 14 11 15
REMARK H PARENT 11 16
ROOT
ATOM      1  C   UNL     1      -9.598  -3.828 -30.451  1.00  0.00     0.019 C 
ATOM      2  C   UNL     1      -9.827  -4.653 -29.418  1.00  0.00     0.094 C 
ENDROOT
BRANCH   1   3
ATOM      3  C   UNL     1      -8.480  -2.871 -30.490  1.00  0.00     0.017 A 
ATOM      4  C   UNL     1      -6.233  -1.173 -30.478  1.00  0.00     0.122 A 
ATOM      5  C   UNL     1      -7.339  -0.869 -31.277  1.00  0.00     0.093 A 
ATOM      6  C   UNL     1      -6.250  -2.327 -29.698  1.00  0.00     0.047 A 
ATOM      7  C   UNL     1      -8.458  -1.718 -31.302  1.00  0.00     0.129 A 
ATOM      8  C   UNL     1      -7.359  -3.172 -29.703  1.00  0.00     0.016 A 
BRANCH   4   9
ATOM      9  O   UNL     1      -5.088  -0.433 -30.370  1.00  0.00    -0.497 OA
ATOM     10  C   UNL     1      -3.953  -1.070 -29.797  1.00  0.00     0.278 C 
ENDBRANCH   4   9
BRANCH   7  11
ATOM     11  O   UNL     1      -9.572  -1.483 -32.074  1.00  0.00    -0.496 OA
ATOM     12  C   UNL     1      -9.426  -0.582 -33.165  1.00  0.00     0.278 C 
ENDBRANCH   7  11
ENDBRANCH   1   3
BRANCH   2  13
ATOM     13  C   UNL     1     -10.963  -5.591 -29.475  1.00  0.00     0.328 C 
ATOM     14  O   UNL     1     -11.531  -6.055 -28.504  1.00  0.00    -0.247 OA
BRANCH  13  15
ATOM     15  O   UNL     1     -11.308  -5.882 -30.746  1.00  0.00    -0.478 OA
ATOM     16  H   UNL     1     -12.134  -6.389 -30.839  1.00  0.00     0.297 HD
ENDBRANCH  13  15
ENDBRANCH   2  13
TORSDOF 5
ENDMDL
MODEL 5
REMARK VINA RESULT:      -5.7      1.516      2.655
REMARK SMILES COc1ccc(C=CC(=O)O)c(OC)c1
REMARK SMILES IDX 7 1 8 2 6 3 3 4 15 5 4 6 12 7 5 8 2 9 1 10 13 11 14 12 9 13
REMARK SMILES IDX 10 14 11 15
REMARK H PARENT 11 16
ROOT
ATOM      1  C   UNL     1      -8.411  -0.438 -32.253  1.00  0.00     0.019 C 
ATOM      2  C   UNL     1      -9.318   0.539 -32.099  1.00  0.00     0.094 C 
ENDROOT
BRANCH   1   3
ATOM      3  C   UNL     1      -7.409  -0.781 -31.231  1.00  0.00     0.017 A 
ATOM      4  C   UNL     1      -5.579  -1.607 -29.256  1.00  0.00     0.122 A 
ATOM      5  C   UNL     1      -5.306  -0.483 -30.040  1.00  0.00     0.093 A 
ATOM      6  C   UNL     1      -6.757  -2.319 -29.468  1.00  0.00     0.047 A 
ATOM      7  C   UNL     1      -6.205  -0.072 -31.038  1.00  0.00     0.129 A 
ATOM      8  C   UNL     1      -7.665  -1.915 -30.447  1.00  0.00     0.016 A 
BRANCH   4   9
ATOM      9  O   UNL     1      -4.785  -2.109 -28.261  1.00  0.00    -0.497 OA
ATOM     10  C   UNL     1      -4.850  -1.470 -26.992  1.00  0.00     0.278 C 
ENDBRANCH   4   9
BRANCH   7  11
ATOM     11  O   UNL     1      -5.991   1.017 -31.850  1.00  0.00    -0.496 OA
ATOM     12  C   UNL     1      -4.652   1.269 -32.258  1.00  0.00     0.278 C 
ENDBRANCH   7  11
ENDBRANCH   1   3
BRANCH   2  13
ATOM     13  C   UNL     1     -10.295   0.799 -33.172  1.00  0.00     0.328 C 
ATOM     14  O   UNL     1     -10.534   0.039 -34.093  1.00  0.00    -0.247 OA
BRANCH  13  15
ATOM     15  O   UNL     1     -10.904   1.992 -33.017  1.00  0.00    -0.478 OA
ATOM     16  H   UNL     1     -10.304   2.737 -32.838  1.00  0.00     0.297 HD
ENDBRANCH  13  15
ENDBRANCH   2  13
TORSDOF 5
ENDMDL
MODEL 6
REMARK VINA RESULT:      -5.6      1.871      3.060
REMARK SMILES COc1ccc(C=CC(=O)O)c(OC)c1
REMARK SMILES IDX 7 1 8 2 6 3 3 4 15 5 4 6 12 7 5 8 2 9 1 10 13 11 14 12 9 13
REMARK SMILES IDX 10 14 11 15
REMARK H PARENT 11 16
ROOT
ATOM      1  C   UNL     1      -8.194   0.619 -32.159  1.00  0.00     0.019 C 
ATOM      2  C   UNL     1      -9.470   0.227 -32.023  1.00  0.00     0.094 C 
ENDROOT
BRANCH   1   3
ATOM      3  C   UNL     1      -7.130   0.257 -31.209  1.00  0.00     0.017 A 
ATOM      4  C   UNL     1      -5.121  -0.619 -29.441  1.00  0.00     0.122 A 
ATOM      5  C   UNL     1      -5.233   0.737 -29.760  1.00  0.00     0.093 A 
ATOM      6  C   UNL     1      -6.004  -1.532 -30.013  1.00  0.00     0.047 A 
ATOM      7  C   UNL     1      -6.222   1.182 -30.653  1.00  0.00     0.129 A 
ATOM      8  C   UNL     1      -6.998  -1.102 -30.892  1.00  0.00     0.016 A 
BRANCH   4   9
ATOM      9  O   UNL     1      -4.202  -1.175 -28.593  1.00  0.00    -0.497 OA
ATOM     10  C   UNL     1      -4.698  -2.000 -27.547  1.00  0.00     0.278 C 
ENDBRANCH   4   9
BRANCH   7  11
ATOM     11  O   UNL     1      -6.379   2.499 -31.017  1.00  0.00    -0.496 OA
ATOM     12  C   UNL     1      -5.542   3.453 -30.375  1.00  0.00     0.278 C 
ENDBRANCH   7  11
ENDBRANCH   1   3
BRANCH   2  13
ATOM     13  C   UNL     1     -10.464   0.625 -33.036  1.00  0.00     0.328 C 
ATOM     14  O   UNL     1     -10.879  -0.098 -33.924  1.00  0.00    -0.247 OA
BRANCH  13  15
ATOM     15  O   UNL     1     -10.870   1.900 -32.868  1.00  0.00    -0.478 OA
ATOM     16  H   UNL     1     -10.246   2.573 -33.194  1.00  0.00     0.297 HD
ENDBRANCH  13  15
ENDBRANCH   2  13
TORSDOF 5
ENDMDL
MODEL 7
REMARK VINA RESULT:      -5.6      1.843      5.507
REMARK SMILES COc1ccc(C=CC(=O)O)c(OC)c1
REMARK SMILES IDX 7 1 8 2 6 3 3 4 15 5 4 6 12 7 5 8 2 9 1 10 13 11 14 12 9 13
REMARK SMILES IDX 10 14 11 15
REMARK H PARENT 11 16
ROOT
ATOM      1  C   UNL     1      -5.621  -0.422 -30.593  1.00  0.00     0.019 C 
ATOM      2  C   UNL     1      -4.350  -0.839 -30.486  1.00  0.00     0.094 C 
ENDROOT
BRANCH   1   3
ATOM      3  C   UNL     1      -6.770  -1.338 -30.675  1.00  0.00     0.017 A 
ATOM      4  C   UNL     1      -8.902  -3.177 -30.672  1.00  0.00     0.122 A 
ATOM      5  C   UNL     1      -8.959  -2.038 -31.479  1.00  0.00     0.093 A 
ATOM      6  C   UNL     1      -7.788  -3.388 -29.863  1.00  0.00     0.047 A 
ATOM      7  C   UNL     1      -7.907  -1.107 -31.476  1.00  0.00     0.129 A 
ATOM      8  C   UNL     1      -6.731  -2.478 -29.859  1.00  0.00     0.016 A 
BRANCH   4   9
ATOM      9  O   UNL     1      -9.859  -4.152 -30.584  1.00  0.00    -0.497 OA
ATOM     10  C   UNL     1      -9.571  -5.274 -29.759  1.00  0.00     0.278 C 
ENDBRANCH   4   9
BRANCH   7  11
ATOM     11  O   UNL     1      -7.905   0.039 -32.237  1.00  0.00    -0.496 OA
ATOM     12  C   UNL     1      -8.778   1.087 -31.832  1.00  0.00     0.278 C 
ENDBRANCH   7  11
ENDBRANCH   1   3
BRANCH   2  13
ATOM     13  C   UNL     1      -3.265   0.154 -30.392  1.00  0.00     0.328 C 
ATOM     14  O   UNL     1      -3.047   0.858 -29.422  1.00  0.00    -0.247 OA
BRANCH  13  15
ATOM     15  O   UNL     1      -2.527   0.199 -31.521  1.00  0.00    -0.478 OA
ATOM     16  H   UNL     1      -3.000  -0.070 -32.328  1.00  0.00     0.297 HD
ENDBRANCH  13  15
ENDBRANCH   2  13
TORSDOF 5
ENDMDL
MODEL 8
REMARK VINA RESULT:      -5.6      2.637      5.445
REMARK SMILES COc1ccc(C=CC(=O)O)c(OC)c1
REMARK SMILES IDX 7 1 8 2 6 3 3 4 15 5 4 6 12 7 5 8 2 9 1 10 13 11 14 12 9 13
REMARK SMILES IDX 10 14 11 15
REMARK H PARENT 11 16
ROOT
ATOM      1  C   UNL     1      -9.056  -4.239 -28.814  1.00  0.00     0.019 C 
ATOM      2  C   UNL     1     -10.184  -4.881 -29.156  1.00  0.00     0.094 C 
ENDROOT
BRANCH   1   3
ATOM      3  C   UNL     1      -8.471  -3.150 -29.613  1.00  0.00     0.017 A 
ATOM      4  C   UNL     1      -7.515  -1.062 -31.243  1.00  0.00     0.122 A 
ATOM      5  C   UNL     1      -6.849  -1.389 -30.058  1.00  0.00     0.093 A 
ATOM      6  C   UNL     1      -8.658  -1.771 -31.603  1.00  0.00     0.047 A 
ATOM      7  C   UNL     1      -7.327  -2.418 -29.231  1.00  0.00     0.129 A 
ATOM      8  C   UNL     1      -9.137  -2.804 -30.797  1.00  0.00     0.016 A 
BRANCH   4   9
ATOM      9  O   UNL     1      -7.153  -0.082 -32.127  1.00  0.00    -0.497 OA
ATOM     10  C   UNL     1      -8.145   0.370 -33.039  1.00  0.00     0.278 C 
ENDBRANCH   4   9
BRANCH   7  11
ATOM     11  O   UNL     1      -6.728  -2.782 -28.048  1.00  0.00    -0.496 OA
ATOM     12  C   UNL     1      -5.447  -2.226 -27.773  1.00  0.00     0.278 C 
ENDBRANCH   7  11
ENDBRANCH   1   3
BRANCH   2  13
ATOM     13  C   UNL     1     -10.705  -5.948 -28.282  1.00  0.00     0.328 C 
ATOM     14  O   UNL     1     -11.883  -6.130 -28.033  1.00  0.00    -0.247 OA
BRANCH  13  15
ATOM     15  O   UNL     1      -9.713  -6.714 -27.781  1.00  0.00    -0.478 OA
ATOM     16  H   UNL     1      -8.889  -6.704 -28.298  1.00  0.00     0.297 HD
ENDBRANCH  13  15
ENDBRANCH   2  13
TORSDOF 5
ENDMDL
MODEL 9
REMARK VINA RESULT:      -5.6      2.094      4.114
REMARK SMILES COc1ccc(C=CC(=O)O)c(OC)c1
REMARK SMILES IDX 7 1 8 2 6 3 3 4 15 5 4 6 12 7 5 8 2 9 1 10 13 11 14 12 9 13
REMARK SMILES IDX 10 14 11 15
REMARK H PARENT 11 16
ROOT
ATOM      1  C   UNL     1      -7.832  -2.723 -29.642  1.00  0.00     0.019 C 
ATOM      2  C   UNL     1      -7.980  -3.943 -30.180  1.00  0.00     0.094 C 
ENDROOT
BRANCH   1   3
ATOM      3  C   UNL     1      -6.651  -1.875 -29.870  1.00  0.00     0.017 A 
ATOM      4  C   UNL     1      -4.291  -0.373 -30.195  1.00  0.00     0.122 A 
ATOM      5  C   UNL     1      -5.385  -0.152 -31.036  1.00  0.00     0.093 A 
ATOM      6  C   UNL     1      -4.375  -1.349 -29.204  1.00  0.00     0.047 A 
ATOM      7  C   UNL     1      -6.561  -0.907 -30.892  1.00  0.00     0.129 A 
ATOM      8  C   UNL     1      -5.541  -2.097 -29.042  1.00  0.00     0.016 A 
BRANCH   4   9
ATOM      9  O   UNL     1      -3.094   0.290 -30.236  1.00  0.00    -0.497 OA
ATOM     10  C   UNL     1      -2.204   0.096 -29.144  1.00  0.00     0.278 C 
ENDBRANCH   4   9
BRANCH   7  11
ATOM     11  O   UNL     1      -7.667  -0.748 -31.692  1.00  0.00    -0.496 OA
ATOM     12  C   UNL     1      -7.694   0.393 -32.542  1.00  0.00     0.278 C 
ENDBRANCH   7  11
ENDBRANCH   1   3
BRANCH   2  13
ATOM     13  C   UNL     1      -9.208  -4.713 -29.908  1.00  0.00     0.328 C 
ATOM     14  O   UNL     1     -10.221  -4.668 -30.583  1.00  0.00    -0.247 OA
BRANCH  13  15
ATOM     15  O   UNL     1      -9.082  -5.485 -28.810  1.00  0.00    -0.478 OA
ATOM     16  H   UNL     1      -9.282  -6.428 -28.948  1.00  0.00     0.297 HD
ENDBRANCH  13  15
ENDBRANCH   2  13
TORSDOF 5
ENDMDL
MODEL 10
REMARK VINA RESULT:      -5.5      3.452      4.479
REMARK SMILES COc1ccc(C=CC(=O)O)c(OC)c1
REMARK SMILES IDX 7 1 8 2 6 3 3 4 15 5 4 6 12 7 5 8 2 9 1 10 13 11 14 12 9 13
REMARK SMILES IDX 10 14 11 15
REMARK H PARENT 11 16
ROOT
ATOM      1  C   UNL     1      -7.351  -2.693 -28.582  1.00  0.00     0.019 C 
ATOM      2  C   UNL     1      -7.755  -3.423 -29.633  1.00  0.00     0.094 C 
ENDROOT
BRANCH   1   3
ATOM      3  C   UNL     1      -6.026  -2.058 -28.498  1.00  0.00     0.017 A 
ATOM      4  C   UNL     1      -3.490  -0.834 -28.531  1.00  0.00     0.122 A 
ATOM      5  C   UNL     1      -4.214  -0.917 -27.339  1.00  0.00     0.093 A 
ATOM      6  C   UNL     1      -4.038  -1.352 -29.702  1.00  0.00     0.047 A 
ATOM      7  C   UNL     1      -5.486  -1.512 -27.315  1.00  0.00     0.129 A 
ATOM      8  C   UNL     1      -5.295  -1.957 -29.691  1.00  0.00     0.016 A 
BRANCH   4   9
ATOM      9  O   UNL     1      -2.249  -0.278 -28.684  1.00  0.00    -0.497 OA
ATOM     10  C   UNL     1      -1.986   0.930 -27.981  1.00  0.00     0.278 C 
ENDBRANCH   4   9
BRANCH   7  11
ATOM     11  O   UNL     1      -6.255  -1.615 -26.180  1.00  0.00    -0.496 OA
ATOM     12  C   UNL     1      -5.773  -0.966 -25.009  1.00  0.00     0.278 C 
ENDBRANCH   7  11
ENDBRANCH   1   3
BRANCH   2  13
ATOM     13  C   UNL     1      -9.109  -4.006 -29.635  1.00  0.00     0.328 C 
ATOM     14  O   UNL     1      -9.808  -4.144 -28.647  1.00  0.00    -0.247 OA
BRANCH  13  15
ATOM     15  O   UNL     1      -9.493  -4.378 -30.873  1.00  0.00    -0.478 OA
ATOM     16  H   UNL     1      -8.979  -5.110 -31.258  1.00  0.00     0.297 HD
ENDBRANCH  13  15
ENDBRANCH   2  13
TORSDOF 5
ENDMDL
