MODEL 1
REMARK VINA RESULT:      -8.1      0.000      0.000
REMARK SMILES Oc1ccc(O)c(-c2cc(O)c(-c3ccc(O)c(O)c3)cc2O)c1
REMARK SMILES IDX 8 1 9 2 10 3 12 4 21 5 22 6 7 7 3 8 4 9 2 10 5 11 24 12 1 13
REMARK SMILES IDX 6 15 23 17 11 19 13 21 20 22 14 23 18 24 15 25 16 26 19 27
REMARK SMILES IDX 17 29
REMARK H PARENT 1 14 6 16 23 18 11 20 19 28 17 30
ROOT
ATOM      1  C   UNL     1      -7.452  -0.910 -24.254  1.00  0.00     0.031 A 
ATOM      2  C   UNL     1      -6.194  -0.323 -24.031  1.00  0.00     0.059 A 
ATOM      3  C   UNL     1      -5.298  -0.106 -25.084  1.00  0.00     0.124 A 
ATOM      4  C   UNL     1      -5.612  -0.471 -26.402  1.00  0.00     0.027 A 
ATOM      5  C   UNL     1      -6.867  -1.063 -26.627  1.00  0.00     0.059 A 
ATOM      6  C   UNL     1      -7.765  -1.276 -25.574  1.00  0.00     0.124 A 
ENDROOT
BRANCH   1   7
ATOM      7  C   UNL     1      -8.376  -1.131 -23.120  1.00  0.00     0.031 A 
ATOM      8  C   UNL     1     -10.181  -1.515 -20.978  1.00  0.00     0.050 A 
ATOM      9  C   UNL     1      -9.207  -2.473 -21.245  1.00  0.00     0.050 A 
ATOM     10  C   UNL     1     -10.255  -0.375 -21.767  1.00  0.00     0.116 A 
ATOM     11  C   UNL     1      -8.315  -2.278 -22.305  1.00  0.00     0.123 A 
ATOM     12  C   UNL     1      -9.371  -0.180 -22.827  1.00  0.00     0.058 A 
BRANCH  10  13
ATOM     13  O   UNL     1     -11.220   0.542 -21.470  1.00  0.00    -0.508 OA
ATOM     14  H   UNL     1     -10.989   0.964 -20.626  1.00  0.00     0.293 HD
ENDBRANCH  10  13
BRANCH  11  15
ATOM     15  O   UNL     1      -7.359  -3.230 -22.549  1.00  0.00    -0.507 OA
ATOM     16  H   UNL     1      -6.498  -2.889 -22.258  1.00  0.00     0.293 HD
ENDBRANCH  11  15
ENDBRANCH   1   7
BRANCH   6  17
ATOM     17  O   UNL     1      -8.979  -1.853 -25.843  1.00  0.00    -0.507 OA
ATOM     18  H   UNL     1      -9.534  -1.809 -25.046  1.00  0.00     0.293 HD
ENDBRANCH   6  17
BRANCH   3  19
ATOM     19  O   UNL     1      -4.092   0.486 -24.814  1.00  0.00    -0.507 OA
ATOM     20  H   UNL     1      -4.046   0.676 -23.862  1.00  0.00     0.293 HD
ENDBRANCH   3  19
BRANCH   4  21
ATOM     21  C   UNL     1      -4.688  -0.257 -27.535  1.00  0.00    -0.011 A 
ATOM     22  C   UNL     1      -4.552   1.010 -28.131  1.00  0.00     0.059 A 
ATOM     23  C   UNL     1      -3.906  -1.319 -28.036  1.00  0.00     0.013 A 
ATOM     24  C   UNL     1      -3.666   1.195 -29.187  1.00  0.00     0.158 A 
ATOM     25  C   UNL     1      -3.012  -1.125 -29.093  1.00  0.00     0.051 A 
ATOM     26  C   UNL     1      -2.900   0.134 -29.660  1.00  0.00     0.157 A 
BRANCH  24  27
ATOM     27  O   UNL     1      -3.514   2.411 -29.796  1.00  0.00    -0.504 OA
ATOM     28  H   UNL     1      -4.268   2.536 -30.399  1.00  0.00     0.293 HD
ENDBRANCH  24  27
BRANCH  26  29
ATOM     29  O   UNL     1      -2.029   0.328 -30.692  1.00  0.00    -0.504 OA
ATOM     30  H   UNL     1      -1.173   0.000 -30.351  1.00  0.00     0.293 HD
ENDBRANCH  26  29
ENDBRANCH   4  21
TORSDOF 8
ENDMDL
MODEL 2
REMARK VINA RESULT:      -7.9      0.787      1.714
REMARK SMILES Oc1ccc(O)c(-c2cc(O)c(-c3ccc(O)c(O)c3)cc2O)c1
REMARK SMILES IDX 8 1 9 2 10 3 12 4 21 5 22 6 7 7 3 8 4 9 2 10 5 11 24 12 1 13
REMARK SMILES IDX 6 15 23 17 11 19 13 21 20 22 14 23 18 24 15 25 16 26 19 27
REMARK SMILES IDX 17 29
REMARK H PARENT 1 14 6 16 23 18 11 20 19 28 17 30
ROOT
ATOM      1  C   UNL     1      -7.399  -0.996 -24.156  1.00  0.00     0.031 A 
ATOM      2  C   UNL     1      -6.132  -0.427 -23.946  1.00  0.00     0.059 A 
ATOM      3  C   UNL     1      -5.261  -0.181 -25.014  1.00  0.00     0.124 A 
ATOM      4  C   UNL     1      -5.612  -0.499 -26.336  1.00  0.00     0.027 A 
ATOM      5  C   UNL     1      -6.877  -1.074 -26.547  1.00  0.00     0.059 A 
ATOM      6  C   UNL     1      -7.749  -1.315 -25.478  1.00  0.00     0.124 A 
ENDROOT
BRANCH   1   7
ATOM      7  C   UNL     1      -8.296  -1.248 -23.006  1.00  0.00     0.031 A 
ATOM      8  C   UNL     1      -9.972  -1.774 -20.792  1.00  0.00     0.050 A 
ATOM      9  C   UNL     1     -10.015  -0.529 -21.414  1.00  0.00     0.050 A 
ATOM     10  C   UNL     1      -9.106  -2.749 -21.268  1.00  0.00     0.116 A 
ATOM     11  C   UNL     1      -9.184  -0.274 -22.510  1.00  0.00     0.123 A 
ATOM     12  C   UNL     1      -8.274  -2.497 -22.357  1.00  0.00     0.058 A 
BRANCH  10  13
ATOM     13  O   UNL     1      -9.099  -3.957 -20.634  1.00  0.00    -0.508 OA
ATOM     14  H   UNL     1      -8.306  -4.443 -20.914  1.00  0.00     0.293 HD
ENDBRANCH  10  13
BRANCH  11  15
ATOM     15  O   UNL     1      -9.244   0.956 -23.113  1.00  0.00    -0.507 OA
ATOM     16  H   UNL     1      -9.612   0.847 -24.006  1.00  0.00     0.293 HD
ENDBRANCH  11  15
ENDBRANCH   1   7
BRANCH   6  17
ATOM     17  O   UNL     1      -8.975  -1.875 -25.735  1.00  0.00    -0.507 OA
ATOM     18  H   UNL     1      -8.847  -2.718 -26.201  1.00  0.00     0.293 HD
ENDBRANCH   6  17
BRANCH   3  19
ATOM     19  O   UNL     1      -4.043   0.393 -24.757  1.00  0.00    -0.507 OA
ATOM     20  H   UNL     1      -3.970   1.211 -25.277  1.00  0.00     0.293 HD
ENDBRANCH   3  19
BRANCH   4  21
ATOM     21  C   UNL     1      -4.716  -0.255 -27.484  1.00  0.00    -0.011 A 
ATOM     22  C   UNL     1      -4.642   1.013 -28.089  1.00  0.00     0.059 A 
ATOM     23  C   UNL     1      -3.899  -1.287 -27.993  1.00  0.00     0.013 A 
ATOM     24  C   UNL     1      -3.781   1.229 -29.161  1.00  0.00     0.158 A 
ATOM     25  C   UNL     1      -3.031  -1.062 -29.065  1.00  0.00     0.051 A 
ATOM     26  C   UNL     1      -2.980   0.197 -29.640  1.00  0.00     0.157 A 
BRANCH  24  27
ATOM     27  O   UNL     1      -3.688   2.445 -29.778  1.00  0.00    -0.504 OA
ATOM     28  H   UNL     1      -4.552   2.637 -30.184  1.00  0.00     0.293 HD
ENDBRANCH  24  27
BRANCH  26  29
ATOM     29  O   UNL     1      -2.134   0.419 -30.688  1.00  0.00    -0.504 OA
ATOM     30  H   UNL     1      -2.528  -0.084 -31.427  1.00  0.00     0.293 HD
ENDBRANCH  26  29
ENDBRANCH   4  21
TORSDOF 8
ENDMDL
MODEL 3
REMARK VINA RESULT:      -7.8      1.231      2.053
REMARK SMILES Oc1ccc(O)c(-c2cc(O)c(-c3ccc(O)c(O)c3)cc2O)c1
REMARK SMILES IDX 8 1 9 2 10 3 12 4 21 5 22 6 7 7 3 8 4 9 2 10 5 11 24 12 1 13
REMARK SMILES IDX 6 15 23 17 11 19 13 21 20 22 14 23 18 24 15 25 16 26 19 27
REMARK SMILES IDX 17 29
REMARK H PARENT 1 14 6 16 23 18 11 20 19 28 17 30
ROOT
ATOM      1  C   UNL     1      -7.129  -0.666 -24.658  1.00  0.00     0.031 A 
ATOM      2  C   UNL     1      -7.765  -1.014 -25.861  1.00  0.00     0.059 A 
ATOM      3  C   UNL     1      -7.067  -1.024 -27.075  1.00  0.00     0.124 A 
ATOM      4  C   UNL     1      -5.708  -0.678 -27.143  1.00  0.00     0.027 A 
ATOM      5  C   UNL     1      -5.072  -0.324 -25.941  1.00  0.00     0.059 A 
ATOM      6  C   UNL     1      -5.769  -0.320 -24.727  1.00  0.00     0.124 A 
ENDROOT
BRANCH   1   7
ATOM      7  C   UNL     1      -7.894  -0.662 -23.391  1.00  0.00     0.031 A 
ATOM      8  C   UNL     1      -9.392  -0.609 -20.994  1.00  0.00     0.050 A 
ATOM      9  C   UNL     1      -8.652  -1.741 -21.326  1.00  0.00     0.050 A 
ATOM     10  C   UNL     1      -9.384   0.487 -21.846  1.00  0.00     0.116 A 
ATOM     11  C   UNL     1      -7.912  -1.762 -22.512  1.00  0.00     0.123 A 
ATOM     12  C   UNL     1      -8.652   0.469 -23.031  1.00  0.00     0.058 A 
BRANCH  10  13
ATOM     13  O   UNL     1     -10.118   1.579 -21.482  1.00  0.00    -0.508 OA
ATOM     14  H   UNL     1     -11.028   1.290 -21.308  1.00  0.00     0.293 HD
ENDBRANCH  10  13
BRANCH  11  15
ATOM     15  O   UNL     1      -7.185  -2.884 -22.819  1.00  0.00    -0.507 OA
ATOM     16  H   UNL     1      -6.255  -2.725 -22.589  1.00  0.00     0.293 HD
ENDBRANCH  11  15
ENDBRANCH   1   7
BRANCH   6  17
ATOM     17  O   UNL     1      -5.103   0.029 -23.579  1.00  0.00    -0.507 OA
ATOM     18  H   UNL     1      -5.653   0.648 -23.071  1.00  0.00     0.293 HD
ENDBRANCH   6  17
BRANCH   3  19
ATOM     19  O   UNL     1      -7.731  -1.388 -28.217  1.00  0.00    -0.507 OA
ATOM     20  H   UNL     1      -7.103  -1.366 -28.960  1.00  0.00     0.293 HD
ENDBRANCH   3  19
BRANCH   4  21
ATOM     21  C   UNL     1      -4.944  -0.675 -28.406  1.00  0.00    -0.011 A 
ATOM     22  C   UNL     1      -4.904   0.467 -29.227  1.00  0.00     0.059 A 
ATOM     23  C   UNL     1      -4.220  -1.815 -28.813  1.00  0.00     0.013 A 
ATOM     24  C   UNL     1      -4.166   0.457 -30.407  1.00  0.00     0.158 A 
ATOM     25  C   UNL     1      -3.475  -1.818 -29.996  1.00  0.00     0.051 A 
ATOM     26  C   UNL     1      -3.455  -0.678 -30.783  1.00  0.00     0.157 A 
BRANCH  24  27
ATOM     27  O   UNL     1      -4.111   1.545 -31.233  1.00  0.00    -0.504 OA
ATOM     28  H   UNL     1      -5.020   1.869 -31.356  1.00  0.00     0.293 HD
ENDBRANCH  24  27
BRANCH  26  29
ATOM     29  O   UNL     1      -2.729  -0.677 -31.939  1.00  0.00    -0.504 OA
ATOM     30  H   UNL     1      -3.011  -1.492 -32.402  1.00  0.00     0.293 HD
ENDBRANCH  26  29
ENDBRANCH   4  21
TORSDOF 8
ENDMDL
MODEL 4
REMARK VINA RESULT:      -7.8      4.361      5.601
REMARK SMILES Oc1ccc(O)c(-c2cc(O)c(-c3ccc(O)c(O)c3)cc2O)c1
REMARK SMILES IDX 8 1 9 2 10 3 12 4 21 5 22 6 7 7 3 8 4 9 2 10 5 11 24 12 1 13
REMARK SMILES IDX 6 15 23 17 11 19 13 21 20 22 14 23 18 24 15 25 16 26 19 27
REMARK SMILES IDX 17 29
REMARK H PARENT 1 14 6 16 23 18 11 20 19 28 17 30
ROOT
ATOM      1  C   UNL     1      -8.724  -2.435 -28.938  1.00  0.00     0.031 A 
ATOM      2  C   UNL     1      -7.438  -2.596 -29.482  1.00  0.00     0.059 A 
ATOM      3  C   UNL     1      -6.597  -1.496 -29.691  1.00  0.00     0.124 A 
ATOM      4  C   UNL     1      -7.004  -0.190 -29.377  1.00  0.00     0.027 A 
ATOM      5  C   UNL     1      -8.291  -0.027 -28.838  1.00  0.00     0.059 A 
ATOM      6  C   UNL     1      -9.130  -1.128 -28.624  1.00  0.00     0.124 A 
ENDROOT
BRANCH   1   7
ATOM      7  C   UNL     1      -9.592  -3.616 -28.731  1.00  0.00     0.031 A 
ATOM      8  C   UNL     1     -11.233  -5.892 -28.392  1.00  0.00     0.050 A 
ATOM      9  C   UNL     1     -10.794  -5.181 -27.278  1.00  0.00     0.050 A 
ATOM     10  C   UNL     1     -10.862  -5.473 -29.662  1.00  0.00     0.116 A 
ATOM     11  C   UNL     1      -9.983  -4.054 -27.451  1.00  0.00     0.123 A 
ATOM     12  C   UNL     1     -10.050  -4.355 -29.838  1.00  0.00     0.058 A 
BRANCH  10  13
ATOM     13  O   UNL     1     -11.317  -6.194 -30.727  1.00  0.00    -0.508 OA
ATOM     14  H   UNL     1     -12.179  -5.834 -30.993  1.00  0.00     0.293 HD
ENDBRANCH  10  13
BRANCH  11  15
ATOM     15  O   UNL     1      -9.565  -3.363 -26.343  1.00  0.00    -0.507 OA
ATOM     16  H   UNL     1      -9.007  -2.622 -26.631  1.00  0.00     0.293 HD
ENDBRANCH  11  15
ENDBRANCH   1   7
BRANCH   6  17
ATOM     17  O   UNL     1     -10.377  -0.919 -28.092  1.00  0.00    -0.507 OA
ATOM     18  H   UNL     1     -10.761  -0.120 -28.490  1.00  0.00     0.293 HD
ENDBRANCH   6  17
BRANCH   3  19
ATOM     19  O   UNL     1      -5.346  -1.710 -30.208  1.00  0.00    -0.507 OA
ATOM     20  H   UNL     1      -5.141  -2.657 -30.140  1.00  0.00     0.293 HD
ENDBRANCH   3  19
BRANCH   4  21
ATOM     21  C   UNL     1      -6.142   0.991 -29.589  1.00  0.00    -0.011 A 
ATOM     22  C   UNL     1      -5.181   1.368 -28.633  1.00  0.00     0.059 A 
ATOM     23  C   UNL     1      -6.252   1.761 -30.765  1.00  0.00     0.013 A 
ATOM     24  C   UNL     1      -4.368   2.474 -28.856  1.00  0.00     0.158 A 
ATOM     25  C   UNL     1      -5.427   2.868 -30.987  1.00  0.00     0.051 A 
ATOM     26  C   UNL     1      -4.490   3.214 -30.028  1.00  0.00     0.157 A 
BRANCH  24  27
ATOM     27  O   UNL     1      -3.428   2.875 -27.946  1.00  0.00    -0.504 OA
ATOM     28  H   UNL     1      -3.892   3.340 -27.227  1.00  0.00     0.293 HD
ENDBRANCH  24  27
BRANCH  26  29
ATOM     29  O   UNL     1      -3.684   4.295 -30.240  1.00  0.00    -0.504 OA
ATOM     30  H   UNL     1      -3.868   4.886 -29.483  1.00  0.00     0.293 HD
ENDBRANCH  26  29
ENDBRANCH   4  21
TORSDOF 8
ENDMDL
MODEL 5
REMARK VINA RESULT:      -7.6      5.140      6.752
REMARK SMILES Oc1ccc(O)c(-c2cc(O)c(-c3ccc(O)c(O)c3)cc2O)c1
REMARK SMILES IDX 8 1 9 2 10 3 12 4 21 5 22 6 7 7 3 8 4 9 2 10 5 11 24 12 1 13
REMARK SMILES IDX 6 15 23 17 11 19 13 21 20 22 14 23 18 24 15 25 16 26 19 27
REMARK SMILES IDX 17 29
REMARK H PARENT 1 14 6 16 23 18 11 20 19 28 17 30
ROOT
ATOM      1  C   UNL     1      -6.323   0.264 -29.869  1.00  0.00     0.031 A 
ATOM      2  C   UNL     1      -6.748   1.325 -29.051  1.00  0.00     0.059 A 
ATOM      3  C   UNL     1      -5.965   2.474 -28.889  1.00  0.00     0.124 A 
ATOM      4  C   UNL     1      -4.722   2.611 -29.525  1.00  0.00     0.027 A 
ATOM      5  C   UNL     1      -4.292   1.548 -30.339  1.00  0.00     0.059 A 
ATOM      6  C   UNL     1      -5.079   0.402 -30.505  1.00  0.00     0.124 A 
ENDROOT
BRANCH   1   7
ATOM      7  C   UNL     1      -7.171  -0.940 -30.018  1.00  0.00     0.031 A 
ATOM      8  C   UNL     1      -8.790  -3.246 -30.243  1.00  0.00     0.050 A 
ATOM      9  C   UNL     1      -8.783  -2.301 -31.266  1.00  0.00     0.050 A 
ATOM     10  C   UNL     1      -7.999  -3.047 -29.120  1.00  0.00     0.116 A 
ATOM     11  C   UNL     1      -7.979  -1.162 -31.150  1.00  0.00     0.123 A 
ATOM     12  C   UNL     1      -7.200  -1.911 -29.000  1.00  0.00     0.058 A 
BRANCH  10  13
ATOM     13  O   UNL     1      -8.031  -3.999 -28.143  1.00  0.00    -0.508 OA
ATOM     14  H   UNL     1      -8.959  -4.161 -27.907  1.00  0.00     0.293 HD
ENDBRANCH  10  13
BRANCH  11  15
ATOM     15  O   UNL     1      -7.980  -0.246 -32.170  1.00  0.00    -0.507 OA
ATOM     16  H   UNL     1      -7.470  -0.606 -32.914  1.00  0.00     0.293 HD
ENDBRANCH  11  15
ENDBRANCH   1   7
BRANCH   6  17
ATOM     17  O   UNL     1      -4.619  -0.607 -31.313  1.00  0.00    -0.507 OA
ATOM     18  H   UNL     1      -5.269  -1.330 -31.317  1.00  0.00     0.293 HD
ENDBRANCH   6  17
BRANCH   3  19
ATOM     19  O   UNL     1      -6.434   3.487 -28.094  1.00  0.00    -0.507 OA
ATOM     20  H   UNL     1      -5.855   3.563 -27.316  1.00  0.00     0.293 HD
ENDBRANCH   3  19
BRANCH   4  21
ATOM     21  C   UNL     1      -3.870   3.808 -29.373  1.00  0.00    -0.011 A 
ATOM     22  C   UNL     1      -3.840   4.807 -30.362  1.00  0.00     0.059 A 
ATOM     23  C   UNL     1      -3.077   3.986 -28.219  1.00  0.00     0.013 A 
ATOM     24  C   UNL     1      -3.043   5.936 -30.194  1.00  0.00     0.158 A 
ATOM     25  C   UNL     1      -2.284   5.125 -28.053  1.00  0.00     0.051 A 
ATOM     26  C   UNL     1      -2.275   6.092 -29.045  1.00  0.00     0.157 A 
BRANCH  24  27
ATOM     27  O   UNL     1      -2.983   6.923 -31.139  1.00  0.00    -0.504 OA
ATOM     28  H   UNL     1      -3.314   7.743 -30.731  1.00  0.00     0.293 HD
ENDBRANCH  24  27
BRANCH  26  29
ATOM     29  O   UNL     1      -1.502   7.205 -28.887  1.00  0.00    -0.504 OA
ATOM     30  H   UNL     1      -2.123   7.887 -28.564  1.00  0.00     0.293 HD
ENDBRANCH  26  29
ENDBRANCH   4  21
TORSDOF 8
ENDMDL
MODEL 6
REMARK VINA RESULT:      -7.6      1.243      8.156
REMARK SMILES Oc1ccc(O)c(-c2cc(O)c(-c3ccc(O)c(O)c3)cc2O)c1
REMARK SMILES IDX 8 1 9 2 10 3 12 4 21 5 22 6 7 7 3 8 4 9 2 10 5 11 24 12 1 13
REMARK SMILES IDX 6 15 23 17 11 19 13 21 20 22 14 23 18 24 15 25 16 26 19 27
REMARK SMILES IDX 17 29
REMARK H PARENT 1 14 6 16 23 18 11 20 19 28 17 30
ROOT
ATOM      1  C   UNL     1      -5.615  -0.391 -26.488  1.00  0.00     0.031 A 
ATOM      2  C   UNL     1      -6.893  -0.955 -26.650  1.00  0.00     0.059 A 
ATOM      3  C   UNL     1      -7.711  -1.226 -25.547  1.00  0.00     0.124 A 
ATOM      4  C   UNL     1      -7.289  -0.956 -24.235  1.00  0.00     0.027 A 
ATOM      5  C   UNL     1      -6.009  -0.398 -24.072  1.00  0.00     0.059 A 
ATOM      6  C   UNL     1      -5.193  -0.122 -25.176  1.00  0.00     0.124 A 
ENDROOT
BRANCH   1   7
ATOM      7  C   UNL     1      -4.772  -0.120 -27.674  1.00  0.00     0.031 A 
ATOM      8  C   UNL     1      -3.159   0.456 -29.922  1.00  0.00     0.050 A 
ATOM      9  C   UNL     1      -3.231  -0.847 -29.436  1.00  0.00     0.050 A 
ATOM     10  C   UNL     1      -3.884   1.461 -29.298  1.00  0.00     0.116 A 
ATOM     11  C   UNL     1      -4.032  -1.127 -28.324  1.00  0.00     0.123 A 
ATOM     12  C   UNL     1      -4.679   1.187 -28.187  1.00  0.00     0.058 A 
BRANCH  10  13
ATOM     13  O   UNL     1      -3.789   2.723 -29.809  1.00  0.00    -0.508 OA
ATOM     14  H   UNL     1      -4.401   3.297 -29.318  1.00  0.00     0.293 HD
ENDBRANCH  10  13
BRANCH  11  15
ATOM     15  O   UNL     1      -4.095  -2.417 -27.862  1.00  0.00    -0.507 OA
ATOM     16  H   UNL     1      -3.768  -2.437 -26.948  1.00  0.00     0.293 HD
ENDBRANCH  11  15
ENDBRANCH   1   7
BRANCH   6  17
ATOM     17  O   UNL     1      -3.954   0.427 -24.966  1.00  0.00    -0.507 OA
ATOM     18  H   UNL     1      -4.033   1.395 -24.970  1.00  0.00     0.293 HD
ENDBRANCH   6  17
BRANCH   3  19
ATOM     19  O   UNL     1      -8.955  -1.759 -25.761  1.00  0.00    -0.507 OA
ATOM     20  H   UNL     1      -9.514  -1.559 -24.991  1.00  0.00     0.293 HD
ENDBRANCH   3  19
BRANCH   4  21
ATOM     21  C   UNL     1      -8.126  -1.232 -23.051  1.00  0.00    -0.011 A 
ATOM     22  C   UNL     1      -8.163  -2.514 -22.472  1.00  0.00     0.059 A 
ATOM     23  C   UNL     1      -8.898  -0.210 -22.460  1.00  0.00     0.013 A 
ATOM     24  C   UNL     1      -8.945  -2.752 -21.346  1.00  0.00     0.158 A 
ATOM     25  C   UNL     1      -9.677  -0.453 -21.325  1.00  0.00     0.051 A 
ATOM     26  C   UNL     1      -9.693  -1.725 -20.778  1.00  0.00     0.157 A 
BRANCH  24  27
ATOM     27  O   UNL     1      -9.012  -3.987 -20.762  1.00  0.00    -0.504 OA
ATOM     28  H   UNL     1      -8.193  -4.464 -20.985  1.00  0.00     0.293 HD
ENDBRANCH  24  27
BRANCH  26  29
ATOM     29  O   UNL     1     -10.453  -1.967 -19.671  1.00  0.00    -0.504 OA
ATOM     30  H   UNL     1     -10.624  -2.930 -19.701  1.00  0.00     0.293 HD
ENDBRANCH  26  29
ENDBRANCH   4  21
TORSDOF 8
ENDMDL
MODEL 7
REMARK VINA RESULT:      -7.6      3.550      4.684
REMARK SMILES Oc1ccc(O)c(-c2cc(O)c(-c3ccc(O)c(O)c3)cc2O)c1
REMARK SMILES IDX 8 1 9 2 10 3 12 4 21 5 22 6 7 7 3 8 4 9 2 10 5 11 24 12 1 13
REMARK SMILES IDX 6 15 23 17 11 19 13 21 20 22 14 23 18 24 15 25 16 26 19 27
REMARK SMILES IDX 17 29
REMARK H PARENT 1 14 6 16 23 18 11 20 19 28 17 30
ROOT
ATOM      1  C   UNL     1      -9.408  -2.576 -27.767  1.00  0.00     0.031 A 
ATOM      2  C   UNL     1      -9.231  -2.756 -29.149  1.00  0.00     0.059 A 
ATOM      3  C   UNL     1      -8.067  -2.320 -29.794  1.00  0.00     0.124 A 
ATOM      4  C   UNL     1      -7.035  -1.677 -29.091  1.00  0.00     0.027 A 
ATOM      5  C   UNL     1      -7.214  -1.491 -27.710  1.00  0.00     0.059 A 
ATOM      6  C   UNL     1      -8.376  -1.932 -27.065  1.00  0.00     0.124 A 
ENDROOT
BRANCH   1   7
ATOM      7  C   UNL     1     -10.651  -3.045 -27.114  1.00  0.00     0.031 A 
ATOM      8  C   UNL     1     -13.001  -3.995 -25.862  1.00  0.00     0.050 A 
ATOM      9  C   UNL     1     -12.734  -2.628 -25.891  1.00  0.00     0.050 A 
ATOM     10  C   UNL     1     -12.109  -4.879 -26.452  1.00  0.00     0.116 A 
ATOM     11  C   UNL     1     -11.571  -2.163 -26.513  1.00  0.00     0.123 A 
ATOM     12  C   UNL     1     -10.947  -4.420 -27.069  1.00  0.00     0.058 A 
BRANCH  10  13
ATOM     13  O   UNL     1     -12.410  -6.209 -26.407  1.00  0.00    -0.508 OA
ATOM     14  H   UNL     1     -11.907  -6.611 -25.679  1.00  0.00     0.293 HD
ENDBRANCH  10  13
BRANCH  11  15
ATOM     15  O   UNL     1     -11.327  -0.814 -26.536  1.00  0.00    -0.507 OA
ATOM     16  H   UNL     1     -10.403  -0.660 -26.281  1.00  0.00     0.293 HD
ENDBRANCH  11  15
ENDBRANCH   1   7
BRANCH   6  17
ATOM     17  O   UNL     1      -8.503  -1.732 -25.714  1.00  0.00    -0.507 OA
ATOM     18  H   UNL     1      -7.833  -1.089 -25.426  1.00  0.00     0.293 HD
ENDBRANCH   6  17
BRANCH   3  19
ATOM     19  O   UNL     1      -7.936  -2.536 -31.141  1.00  0.00    -0.507 OA
ATOM     20  H   UNL     1      -8.221  -1.734 -31.612  1.00  0.00     0.293 HD
ENDBRANCH   3  19
BRANCH   4  21
ATOM     21  C   UNL     1      -5.797  -1.202 -29.741  1.00  0.00    -0.011 A 
ATOM     22  C   UNL     1      -5.789  -0.026 -30.513  1.00  0.00     0.059 A 
ATOM     23  C   UNL     1      -4.587  -1.910 -29.590  1.00  0.00     0.013 A 
ATOM     24  C   UNL     1      -4.610   0.415 -31.105  1.00  0.00     0.158 A 
ATOM     25  C   UNL     1      -3.404  -1.460 -30.182  1.00  0.00     0.051 A 
ATOM     26  C   UNL     1      -3.427  -0.298 -30.936  1.00  0.00     0.157 A 
BRANCH  24  27
ATOM     27  O   UNL     1      -4.565   1.549 -31.868  1.00  0.00    -0.504 OA
ATOM     28  H   UNL     1      -4.503   2.310 -31.264  1.00  0.00     0.293 HD
ENDBRANCH  24  27
BRANCH  26  29
ATOM     29  O   UNL     1      -2.274   0.145 -31.516  1.00  0.00    -0.504 OA
ATOM     30  H   UNL     1      -2.290   1.113 -31.378  1.00  0.00     0.293 HD
ENDBRANCH  26  29
ENDBRANCH   4  21
TORSDOF 8
ENDMDL
MODEL 8
REMARK VINA RESULT:      -7.6      3.802      4.395
REMARK SMILES Oc1ccc(O)c(-c2cc(O)c(-c3ccc(O)c(O)c3)cc2O)c1
REMARK SMILES IDX 8 1 9 2 10 3 12 4 21 5 22 6 7 7 3 8 4 9 2 10 5 11 24 12 1 13
REMARK SMILES IDX 6 15 23 17 11 19 13 21 20 22 14 23 18 24 15 25 16 26 19 27
REMARK SMILES IDX 17 29
REMARK H PARENT 1 14 6 16 23 18 11 20 19 28 17 30
ROOT
ATOM      1  C   UNL     1      -9.348  -3.167 -27.872  1.00  0.00     0.031 A 
ATOM      2  C   UNL     1      -8.558  -2.206 -27.218  1.00  0.00     0.059 A 
ATOM      3  C   UNL     1      -7.454  -1.622 -27.851  1.00  0.00     0.124 A 
ATOM      4  C   UNL     1      -7.084  -1.977 -29.158  1.00  0.00     0.027 A 
ATOM      5  C   UNL     1      -7.869  -2.942 -29.811  1.00  0.00     0.059 A 
ATOM      6  C   UNL     1      -8.976  -3.522 -29.180  1.00  0.00     0.124 A 
ENDROOT
BRANCH   1   7
ATOM      7  C   UNL     1     -10.506  -3.770 -27.176  1.00  0.00     0.031 A 
ATOM      8  C   UNL     1     -12.750  -4.869 -25.853  1.00  0.00     0.050 A 
ATOM      9  C   UNL     1     -11.800  -5.711 -26.426  1.00  0.00     0.050 A 
ATOM     10  C   UNL     1     -12.583  -3.493 -25.935  1.00  0.00     0.116 A 
ATOM     11  C   UNL     1     -10.691  -5.163 -27.079  1.00  0.00     0.123 A 
ATOM     12  C   UNL     1     -11.482  -2.943 -26.588  1.00  0.00     0.058 A 
BRANCH  10  13
ATOM     13  O   UNL     1     -13.532  -2.703 -25.356  1.00  0.00    -0.508 OA
ATOM     14  H   UNL     1     -14.034  -2.263 -26.061  1.00  0.00     0.293 HD
ENDBRANCH  10  13
BRANCH  11  15
ATOM     15  O   UNL     1      -9.765  -6.008 -27.633  1.00  0.00    -0.507 OA
ATOM     16  H   UNL     1     -10.223  -6.797 -27.966  1.00  0.00     0.293 HD
ENDBRANCH  11  15
ENDBRANCH   1   7
BRANCH   6  17
ATOM     17  O   UNL     1      -9.715  -4.457 -29.860  1.00  0.00    -0.507 OA
ATOM     18  H   UNL     1     -10.654  -4.335 -29.644  1.00  0.00     0.293 HD
ENDBRANCH   6  17
BRANCH   3  19
ATOM     19  O   UNL     1      -6.728  -0.677 -27.175  1.00  0.00    -0.507 OA
ATOM     20  H   UNL     1      -6.129  -0.239 -27.803  1.00  0.00     0.293 HD
ENDBRANCH   3  19
BRANCH   4  21
ATOM     21  C   UNL     1      -5.924  -1.382 -29.852  1.00  0.00    -0.011 A 
ATOM     22  C   UNL     1      -6.079  -0.272 -30.702  1.00  0.00     0.059 A 
ATOM     23  C   UNL     1      -4.627  -1.904 -29.665  1.00  0.00     0.013 A 
ATOM     24  C   UNL     1      -4.973   0.285 -31.336  1.00  0.00     0.158 A 
ATOM     25  C   UNL     1      -3.518  -1.337 -30.300  1.00  0.00     0.051 A 
ATOM     26  C   UNL     1      -3.702  -0.244 -31.131  1.00  0.00     0.157 A 
BRANCH  24  27
ATOM     27  O   UNL     1      -5.087   1.359 -32.175  1.00  0.00    -0.504 OA
ATOM     28  H   UNL     1      -4.593   1.152 -32.989  1.00  0.00     0.293 HD
ENDBRANCH  24  27
BRANCH  26  29
ATOM     29  O   UNL     1      -2.622   0.312 -31.752  1.00  0.00    -0.504 OA
ATOM     30  H   UNL     1      -2.888   0.371 -32.692  1.00  0.00     0.293 HD
ENDBRANCH  26  29
ENDBRANCH   4  21
TORSDOF 8
ENDMDL
MODEL 9
REMARK VINA RESULT:      -7.6      1.304      8.304
REMARK SMILES Oc1ccc(O)c(-c2cc(O)c(-c3ccc(O)c(O)c3)cc2O)c1
REMARK SMILES IDX 8 1 9 2 10 3 12 4 21 5 22 6 7 7 3 8 4 9 2 10 5 11 24 12 1 13
REMARK SMILES IDX 6 15 23 17 11 19 13 21 20 22 14 23 18 24 15 25 16 26 19 27
REMARK SMILES IDX 17 29
REMARK H PARENT 1 14 6 16 23 18 11 20 19 28 17 30
ROOT
ATOM      1  C   UNL     1      -5.879  -0.455 -26.828  1.00  0.00     0.031 A 
ATOM      2  C   UNL     1      -7.146  -1.059 -26.879  1.00  0.00     0.059 A 
ATOM      3  C   UNL     1      -7.877  -1.311 -25.712  1.00  0.00     0.124 A 
ATOM      4  C   UNL     1      -7.373  -0.982 -24.444  1.00  0.00     0.027 A 
ATOM      5  C   UNL     1      -6.103  -0.382 -24.391  1.00  0.00     0.059 A 
ATOM      6  C   UNL     1      -5.375  -0.125 -25.559  1.00  0.00     0.124 A 
ENDROOT
BRANCH   1   7
ATOM      7  C   UNL     1      -5.128  -0.204 -28.079  1.00  0.00     0.031 A 
ATOM      8  C   UNL     1      -3.707   0.217 -30.485  1.00  0.00     0.050 A 
ATOM      9  C   UNL     1      -4.202   1.306 -29.772  1.00  0.00     0.050 A 
ATOM     10  C   UNL     1      -3.914  -1.068 -30.004  1.00  0.00     0.116 A 
ATOM     11  C   UNL     1      -4.904   1.092 -28.581  1.00  0.00     0.123 A 
ATOM     12  C   UNL     1      -4.616  -1.285 -28.821  1.00  0.00     0.058 A 
BRANCH  10  13
ATOM     13  O   UNL     1      -3.408  -2.107 -30.730  1.00  0.00    -0.508 OA
ATOM     14  H   UNL     1      -2.983  -1.745 -31.525  1.00  0.00     0.293 HD
ENDBRANCH  10  13
BRANCH  11  15
ATOM     15  O   UNL     1      -5.380   2.176 -27.890  1.00  0.00    -0.507 OA
ATOM     16  H   UNL     1      -4.715   2.884 -27.925  1.00  0.00     0.293 HD
ENDBRANCH  11  15
ENDBRANCH   1   7
BRANCH   6  17
ATOM     17  O   UNL     1      -4.141   0.465 -25.456  1.00  0.00    -0.507 OA
ATOM     18  H   UNL     1      -3.642   0.033 -24.743  1.00  0.00     0.293 HD
ENDBRANCH   6  17
BRANCH   3  19
ATOM     19  O   UNL     1      -9.117  -1.887 -25.819  1.00  0.00    -0.507 OA
ATOM     20  H   UNL     1      -9.701  -1.276 -26.300  1.00  0.00     0.293 HD
ENDBRANCH   3  19
BRANCH   4  21
ATOM     21  C   UNL     1      -8.117  -1.237 -23.194  1.00  0.00    -0.011 A 
ATOM     22  C   UNL     1      -8.208  -2.534 -22.657  1.00  0.00     0.059 A 
ATOM     23  C   UNL     1      -8.742  -0.180 -22.499  1.00  0.00     0.013 A 
ATOM     24  C   UNL     1      -8.900  -2.753 -21.470  1.00  0.00     0.158 A 
ATOM     25  C   UNL     1      -9.431  -0.405 -21.304  1.00  0.00     0.051 A 
ATOM     26  C   UNL     1      -9.503  -1.693 -20.799  1.00  0.00     0.157 A 
BRANCH  24  27
ATOM     27  O   UNL     1      -9.016  -4.001 -20.922  1.00  0.00    -0.504 OA
ATOM     28  H   UNL     1      -8.439  -4.600 -21.428  1.00  0.00     0.293 HD
ENDBRANCH  24  27
BRANCH  26  29
ATOM     29  O   UNL     1     -10.175  -1.917 -19.633  1.00  0.00    -0.504 OA
ATOM     30  H   UNL     1     -10.943  -1.314 -19.677  1.00  0.00     0.293 HD
ENDBRANCH  26  29
ENDBRANCH   4  21
TORSDOF 8
ENDMDL
MODEL 10
REMARK VINA RESULT:      -7.5      4.318      7.638
REMARK SMILES Oc1ccc(O)c(-c2cc(O)c(-c3ccc(O)c(O)c3)cc2O)c1
REMARK SMILES IDX 8 1 9 2 10 3 12 4 21 5 22 6 7 7 3 8 4 9 2 10 5 11 24 12 1 13
REMARK SMILES IDX 6 15 23 17 11 19 13 21 20 22 14 23 18 24 15 25 16 26 19 27
REMARK SMILES IDX 17 29
REMARK H PARENT 1 14 6 16 23 18 11 20 19 28 17 30
ROOT
ATOM      1  C   UNL     1      -4.041   1.984 -29.004  1.00  0.00     0.031 A 
ATOM      2  C   UNL     1      -3.226   2.836 -28.239  1.00  0.00     0.059 A 
ATOM      3  C   UNL     1      -3.081   4.189 -28.568  1.00  0.00     0.124 A 
ATOM      4  C   UNL     1      -3.733   4.749 -29.678  1.00  0.00     0.027 A 
ATOM      5  C   UNL     1      -4.543   3.896 -30.448  1.00  0.00     0.059 A 
ATOM      6  C   UNL     1      -4.692   2.544 -30.115  1.00  0.00     0.124 A 
ENDROOT
BRANCH   1   7
ATOM      7  C   UNL     1      -4.172   0.557 -28.634  1.00  0.00     0.031 A 
ATOM      8  C   UNL     1      -4.478  -2.158 -27.909  1.00  0.00     0.050 A 
ATOM      9  C   UNL     1      -3.479  -1.788 -28.806  1.00  0.00     0.050 A 
ATOM     10  C   UNL     1      -5.315  -1.187 -27.377  1.00  0.00     0.116 A 
ATOM     11  C   UNL     1      -3.330  -0.443 -29.160  1.00  0.00     0.123 A 
ATOM     12  C   UNL     1      -5.173   0.153 -27.731  1.00  0.00     0.058 A 
BRANCH  10  13
ATOM     13  O   UNL     1      -6.277  -1.591 -26.498  1.00  0.00    -0.508 OA
ATOM     14  H   UNL     1      -6.804  -0.815 -26.245  1.00  0.00     0.293 HD
ENDBRANCH  10  13
BRANCH  11  15
ATOM     15  O   UNL     1      -2.338  -0.096 -30.040  1.00  0.00    -0.507 OA
ATOM     16  H   UNL     1      -1.839   0.650 -29.669  1.00  0.00     0.293 HD
ENDBRANCH  11  15
ENDBRANCH   1   7
BRANCH   6  17
ATOM     17  O   UNL     1      -5.497   1.754 -30.895  1.00  0.00    -0.507 OA
ATOM     18  H   UNL     1      -6.192   1.365 -30.339  1.00  0.00     0.293 HD
ENDBRANCH   6  17
BRANCH   3  19
ATOM     19  O   UNL     1      -2.289   4.980 -27.778  1.00  0.00    -0.507 OA
ATOM     20  H   UNL     1      -2.101   4.503 -26.952  1.00  0.00     0.293 HD
ENDBRANCH   3  19
BRANCH   4  21
ATOM     21  C   UNL     1      -3.598   6.170 -30.054  1.00  0.00    -0.011 A 
ATOM     22  C   UNL     1      -4.647   7.081 -29.832  1.00  0.00     0.059 A 
ATOM     23  C   UNL     1      -2.405   6.653 -30.630  1.00  0.00     0.013 A 
ATOM     24  C   UNL     1      -4.497   8.421 -30.178  1.00  0.00     0.158 A 
ATOM     25  C   UNL     1      -2.257   8.001 -30.970  1.00  0.00     0.051 A 
ATOM     26  C   UNL     1      -3.308   8.874 -30.739  1.00  0.00     0.157 A 
BRANCH  24  27
ATOM     27  O   UNL     1      -5.498   9.332 -29.984  1.00  0.00    -0.504 OA
ATOM     28  H   UNL     1      -6.343   8.850 -29.994  1.00  0.00     0.293 HD
ENDBRANCH  24  27
BRANCH  26  29
ATOM     29  O   UNL     1      -3.168  10.191 -31.071  1.00  0.00    -0.504 OA
ATOM     30  H   UNL     1      -2.718  10.175 -31.939  1.00  0.00     0.293 HD
ENDBRANCH  26  29
ENDBRANCH   4  21
TORSDOF 8
ENDMDL
