MODEL 1
REMARK VINA RESULT:      -7.3      0.000      0.000
REMARK SMILES OC=CC=C(O)c1ccc(O)cc1
REMARK SMILES IDX 4 1 5 2 3 3 2 4 1 5 7 7 8 8 13 9 9 10 12 11 10 12 11 13 6 15
REMARK H PARENT 1 6 11 14 6 16
ROOT
ATOM      1  C   UNL     1       5.796  -3.209 -20.550  1.00  0.00     0.050 C 
ATOM      2  C   UNL     1       6.220  -3.095 -19.278  1.00  0.00     0.122 C 
ENDROOT
BRANCH   1   3
ATOM      3  C   UNL     1       5.747  -2.151 -21.539  1.00  0.00     0.042 C 
ATOM      4  C   UNL     1       5.058  -2.263 -22.681  1.00  0.00     0.183 C 
BRANCH   4   5
ATOM      5  O   UNL     1       4.979  -1.288 -23.637  1.00  0.00    -0.516 OA
ATOM      6  H   UNL     1       4.224  -0.709 -23.432  1.00  0.00     0.292 HD
ENDBRANCH   4   5
ENDBRANCH   1   3
BRANCH   2   7
ATOM      7  C   UNL     1       6.748  -1.863 -18.673  1.00  0.00     0.017 A 
ATOM      8  C   UNL     1       6.119  -1.313 -17.548  1.00  0.00     0.016 A 
ATOM      9  C   UNL     1       7.887  -1.235 -19.195  1.00  0.00     0.016 A 
ATOM     10  C   UNL     1       6.609  -0.141 -16.963  1.00  0.00     0.047 A 
ATOM     11  C   UNL     1       8.376  -0.064 -18.613  1.00  0.00     0.047 A 
ATOM     12  C   UNL     1       7.733   0.475 -17.504  1.00  0.00     0.115 A 
BRANCH  12  13
ATOM     13  O   UNL     1       8.243   1.618 -16.968  1.00  0.00    -0.508 OA
ATOM     14  H   UNL     1       7.534   2.078 -16.489  1.00  0.00     0.293 HD
ENDBRANCH  12  13
ENDBRANCH   2   7
BRANCH   2  15
ATOM     15  O   UNL     1       6.177  -4.156 -18.396  1.00  0.00    -0.507 OA
ATOM     16  H   UNL     1       5.488  -3.983 -17.734  1.00  0.00     0.293 HD
ENDBRANCH   2  15
TORSDOF 5
ENDMDL
MODEL 2
REMARK VINA RESULT:      -6.4     12.779     14.803
REMARK SMILES OC=CC=C(O)c1ccc(O)cc1
REMARK SMILES IDX 4 1 5 2 3 3 2 4 1 5 7 7 8 8 13 9 9 10 12 11 10 12 11 13 6 15
REMARK H PARENT 1 6 11 14 6 16
ROOT
ATOM      1  C   UNL     1       0.624  -9.996 -26.226  1.00  0.00     0.050 C 
ATOM      2  C   UNL     1      -0.163  -9.215 -26.989  1.00  0.00     0.122 C 
ENDROOT
BRANCH   1   3
ATOM      3  C   UNL     1       0.189 -11.084 -25.375  1.00  0.00     0.042 C 
ATOM      4  C   UNL     1       0.921 -12.188 -25.185  1.00  0.00     0.183 C 
BRANCH   4   5
ATOM      5  O   UNL     1       0.553 -13.236 -24.386  1.00  0.00    -0.516 OA
ATOM      6  H   UNL     1       0.273 -13.978 -24.951  1.00  0.00     0.292 HD
ENDBRANCH   4   5
ENDBRANCH   1   3
BRANCH   2   7
ATOM      7  C   UNL     1      -1.621  -9.357 -27.117  1.00  0.00     0.017 A 
ATOM      8  C   UNL     1      -2.461  -8.301 -26.736  1.00  0.00     0.016 A 
ATOM      9  C   UNL     1      -2.188 -10.529 -27.634  1.00  0.00     0.016 A 
ATOM     10  C   UNL     1      -3.849  -8.423 -26.850  1.00  0.00     0.047 A 
ATOM     11  C   UNL     1      -3.574 -10.653 -27.747  1.00  0.00     0.047 A 
ATOM     12  C   UNL     1      -4.393  -9.601 -27.353  1.00  0.00     0.115 A 
BRANCH  12  13
ATOM     13  O   UNL     1      -5.740  -9.763 -27.480  1.00  0.00    -0.508 OA
ATOM     14  H   UNL     1      -5.977  -9.655 -28.416  1.00  0.00     0.293 HD
ENDBRANCH  12  13
ENDBRANCH   2   7
BRANCH   2  15
ATOM     15  O   UNL     1       0.346  -8.165 -27.727  1.00  0.00    -0.507 OA
ATOM     16  H   UNL     1       0.857  -7.588 -27.137  1.00  0.00     0.293 HD
ENDBRANCH   2  15
TORSDOF 5
ENDMDL
MODEL 3
REMARK VINA RESULT:      -6.4      2.225      6.063
REMARK SMILES OC=CC=C(O)c1ccc(O)cc1
REMARK SMILES IDX 4 1 5 2 3 3 2 4 1 5 7 7 8 8 13 9 9 10 12 11 10 12 11 13 6 15
REMARK H PARENT 1 6 11 14 6 16
ROOT
ATOM      1  C   UNL     1       9.099   1.269 -15.974  1.00  0.00     0.050 C 
ATOM      2  C   UNL     1       7.942   1.154 -16.652  1.00  0.00     0.122 C 
ENDROOT
BRANCH   1   3
ATOM      3  C   UNL     1      10.070   0.219 -15.746  1.00  0.00     0.042 C 
ATOM      4  C   UNL     1      11.137   0.383 -14.955  1.00  0.00     0.183 C 
BRANCH   4   5
ATOM      5  O   UNL     1      12.075  -0.582 -14.707  1.00  0.00    -0.516 OA
ATOM      6  H   UNL     1      11.626  -1.372 -14.357  1.00  0.00     0.292 HD
ENDBRANCH   4   5
ENDBRANCH   1   3
BRANCH   2   7
ATOM      7  C   UNL     1       7.474  -0.071 -17.318  1.00  0.00     0.017 A 
ATOM      8  C   UNL     1       6.608  -0.944 -16.645  1.00  0.00     0.016 A 
ATOM      9  C   UNL     1       7.867  -0.373 -18.629  1.00  0.00     0.016 A 
ATOM     10  C   UNL     1       6.157  -2.113 -17.266  1.00  0.00     0.047 A 
ATOM     11  C   UNL     1       7.418  -1.540 -19.249  1.00  0.00     0.047 A 
ATOM     12  C   UNL     1       6.569  -2.402 -18.562  1.00  0.00     0.115 A 
BRANCH  12  13
ATOM     13  O   UNL     1       6.155  -3.530 -19.204  1.00  0.00    -0.508 OA
ATOM     14  H   UNL     1       6.932  -4.082 -19.391  1.00  0.00     0.293 HD
ENDBRANCH  12  13
ENDBRANCH   2   7
BRANCH   2  15
ATOM     15  O   UNL     1       7.056   2.206 -16.768  1.00  0.00    -0.507 OA
ATOM     16  H   UNL     1       7.297   2.890 -16.123  1.00  0.00     0.293 HD
ENDBRANCH   2  15
TORSDOF 5
ENDMDL
MODEL 4
REMARK VINA RESULT:      -5.9     18.311     20.330
REMARK SMILES OC=CC=C(O)c1ccc(O)cc1
REMARK SMILES IDX 4 1 5 2 3 3 2 4 1 5 7 7 8 8 13 9 9 10 12 11 10 12 11 13 6 15
REMARK H PARENT 1 6 11 14 6 16
ROOT
ATOM      1  C   UNL     1      -8.474  -3.620 -30.177  1.00  0.00     0.050 C 
ATOM      2  C   UNL     1      -8.055  -2.362 -30.403  1.00  0.00     0.122 C 
ENDROOT
BRANCH   1   3
ATOM      3  C   UNL     1      -9.767  -4.172 -30.525  1.00  0.00     0.042 C 
ATOM      4  C   UNL     1     -10.164  -5.387 -30.127  1.00  0.00     0.183 C 
BRANCH   4   5
ATOM      5  O   UNL     1     -11.377  -5.944 -30.425  1.00  0.00    -0.516 OA
ATOM      6  H   UNL     1     -11.536  -6.690 -29.821  1.00  0.00     0.292 HD
ENDBRANCH   4   5
ENDBRANCH   1   3
BRANCH   2   7
ATOM      7  C   UNL     1      -8.841  -1.321 -31.085  1.00  0.00     0.017 A 
ATOM      8  C   UNL     1      -8.784  -1.206 -32.480  1.00  0.00     0.016 A 
ATOM      9  C   UNL     1      -9.664  -0.450 -30.359  1.00  0.00     0.016 A 
ATOM     10  C   UNL     1      -9.523  -0.221 -33.141  1.00  0.00     0.047 A 
ATOM     11  C   UNL     1     -10.403   0.535 -31.018  1.00  0.00     0.047 A 
ATOM     12  C   UNL     1     -10.324   0.643 -32.402  1.00  0.00     0.115 A 
BRANCH  12  13
ATOM     13  O   UNL     1     -11.061   1.618 -33.005  1.00  0.00    -0.508 OA
ATOM     14  H   UNL     1     -11.657   1.202 -33.649  1.00  0.00     0.293 HD
ENDBRANCH  12  13
ENDBRANCH   2   7
BRANCH   2  15
ATOM     15  O   UNL     1      -6.818  -1.917 -29.984  1.00  0.00    -0.507 OA
ATOM     16  H   UNL     1      -6.918  -1.032 -29.598  1.00  0.00     0.293 HD
ENDBRANCH   2  15
TORSDOF 5
ENDMDL
MODEL 5
REMARK VINA RESULT:      -5.8     13.748     15.210
REMARK SMILES OC=CC=C(O)c1ccc(O)cc1
REMARK SMILES IDX 4 1 5 2 3 3 2 4 1 5 7 7 8 8 13 9 9 10 12 11 10 12 11 13 6 15
REMARK H PARENT 1 6 11 14 6 16
ROOT
ATOM      1  C   UNL     1      -3.290  -0.168 -28.346  1.00  0.00     0.050 C 
ATOM      2  C   UNL     1      -3.953   0.911 -27.892  1.00  0.00     0.122 C 
ENDROOT
BRANCH   1   3
ATOM      3  C   UNL     1      -2.652  -0.304 -29.640  1.00  0.00     0.042 C 
ATOM      4  C   UNL     1      -3.321  -0.672 -30.739  1.00  0.00     0.183 C 
BRANCH   4   5
ATOM      5  O   UNL     1      -2.762  -0.806 -31.980  1.00  0.00    -0.516 OA
ATOM      6  H   UNL     1      -3.399  -1.253 -32.564  1.00  0.00     0.292 HD
ENDBRANCH   4   5
ENDBRANCH   1   3
BRANCH   2   7
ATOM      7  C   UNL     1      -4.116   2.173 -28.630  1.00  0.00     0.017 A 
ATOM      8  C   UNL     1      -3.198   3.216 -28.442  1.00  0.00     0.016 A 
ATOM      9  C   UNL     1      -5.171   2.345 -29.536  1.00  0.00     0.016 A 
ATOM     10  C   UNL     1      -3.342   4.421 -29.136  1.00  0.00     0.047 A 
ATOM     11  C   UNL     1      -5.316   3.549 -30.228  1.00  0.00     0.047 A 
ATOM     12  C   UNL     1      -4.404   4.577 -30.021  1.00  0.00     0.115 A 
BRANCH  12  13
ATOM     13  O   UNL     1      -4.583   5.735 -30.717  1.00  0.00    -0.508 OA
ATOM     14  H   UNL     1      -4.347   6.481 -30.141  1.00  0.00     0.293 HD
ENDBRANCH  12  13
ENDBRANCH   2   7
BRANCH   2  15
ATOM     15  O   UNL     1      -4.573   0.921 -26.659  1.00  0.00    -0.507 OA
ATOM     16  H   UNL     1      -3.976   1.329 -26.011  1.00  0.00     0.293 HD
ENDBRANCH   2  15
TORSDOF 5
ENDMDL
MODEL 6
REMARK VINA RESULT:      -5.7     14.812     16.349
REMARK SMILES OC=CC=C(O)c1ccc(O)cc1
REMARK SMILES IDX 4 1 5 2 3 3 2 4 1 5 7 7 8 8 13 9 9 10 12 11 10 12 11 13 6 15
REMARK H PARENT 1 6 11 14 6 16
ROOT
ATOM      1  C   UNL     1      -4.807   4.687 -29.414  1.00  0.00     0.050 C 
ATOM      2  C   UNL     1      -5.031   3.400 -29.091  1.00  0.00     0.122 C 
ENDROOT
BRANCH   1   3
ATOM      3  C   UNL     1      -3.968   5.169 -30.493  1.00  0.00     0.042 C 
ATOM      4  C   UNL     1      -2.959   6.025 -30.294  1.00  0.00     0.183 C 
BRANCH   4   5
ATOM      5  O   UNL     1      -2.139   6.500 -31.280  1.00  0.00    -0.516 OA
ATOM      6  H   UNL     1      -2.634   7.145 -31.816  1.00  0.00     0.292 HD
ENDBRANCH   4   5
ENDBRANCH   1   3
BRANCH   2   7
ATOM      7  C   UNL     1      -4.481   2.242 -29.811  1.00  0.00     0.017 A 
ATOM      8  C   UNL     1      -3.438   1.498 -29.242  1.00  0.00     0.016 A 
ATOM      9  C   UNL     1      -4.998   1.856 -31.055  1.00  0.00     0.016 A 
ATOM     10  C   UNL     1      -2.904   0.396 -29.916  1.00  0.00     0.047 A 
ATOM     11  C   UNL     1      -4.464   0.756 -31.729  1.00  0.00     0.047 A 
ATOM     12  C   UNL     1      -3.421   0.037 -31.156  1.00  0.00     0.115 A 
BRANCH  12  13
ATOM     13  O   UNL     1      -2.930  -1.030 -31.849  1.00  0.00    -0.508 OA
ATOM     14  H   UNL     1      -3.157  -0.920 -32.786  1.00  0.00     0.293 HD
ENDBRANCH  12  13
ENDBRANCH   2   7
BRANCH   2  15
ATOM     15  O   UNL     1      -5.808   3.045 -28.007  1.00  0.00    -0.507 OA
ATOM     16  H   UNL     1      -6.321   3.819 -27.722  1.00  0.00     0.293 HD
ENDBRANCH   2  15
TORSDOF 5
ENDMDL
MODEL 7
REMARK VINA RESULT:      -5.7     13.920     14.925
REMARK SMILES OC=CC=C(O)c1ccc(O)cc1
REMARK SMILES IDX 4 1 5 2 3 3 2 4 1 5 7 7 8 8 13 9 9 10 12 11 10 12 11 13 6 15
REMARK H PARENT 1 6 11 14 6 16
ROOT
ATOM      1  C   UNL     1      -3.531  -1.747 -29.849  1.00  0.00     0.050 C 
ATOM      2  C   UNL     1      -3.391  -0.574 -30.493  1.00  0.00     0.122 C 
ENDROOT
BRANCH   1   3
ATOM      3  C   UNL     1      -3.856  -1.926 -28.448  1.00  0.00     0.042 C 
ATOM      4  C   UNL     1      -5.115  -2.047 -28.010  1.00  0.00     0.183 C 
BRANCH   4   5
ATOM      5  O   UNL     1      -5.466  -2.224 -26.700  1.00  0.00    -0.516 OA
ATOM      6  H   UNL     1      -5.720  -3.154 -26.566  1.00  0.00     0.292 HD
ENDBRANCH   4   5
ENDBRANCH   1   3
BRANCH   2   7
ATOM      7  C   UNL     1      -3.581   0.751 -29.883  1.00  0.00     0.017 A 
ATOM      8  C   UNL     1      -4.611   1.587 -30.336  1.00  0.00     0.016 A 
ATOM      9  C   UNL     1      -2.756   1.186 -28.837  1.00  0.00     0.016 A 
ATOM     10  C   UNL     1      -4.802   2.849 -29.767  1.00  0.00     0.047 A 
ATOM     11  C   UNL     1      -2.945   2.448 -28.269  1.00  0.00     0.047 A 
ATOM     12  C   UNL     1      -3.964   3.269 -28.739  1.00  0.00     0.115 A 
BRANCH  12  13
ATOM     13  O   UNL     1      -4.113   4.492 -28.157  1.00  0.00    -0.508 OA
ATOM     14  H   UNL     1      -3.773   4.445 -27.248  1.00  0.00     0.293 HD
ENDBRANCH  12  13
ENDBRANCH   2   7
BRANCH   2  15
ATOM     15  O   UNL     1      -3.026  -0.510 -31.823  1.00  0.00    -0.507 OA
ATOM     16  H   UNL     1      -2.498  -1.295 -32.040  1.00  0.00     0.293 HD
ENDBRANCH   2  15
TORSDOF 5
ENDMDL
MODEL 8
REMARK VINA RESULT:      -5.7     16.449     19.658
REMARK SMILES OC=CC=C(O)c1ccc(O)cc1
REMARK SMILES IDX 4 1 5 2 3 3 2 4 1 5 7 7 8 8 13 9 9 10 12 11 10 12 11 13 6 15
REMARK H PARENT 1 6 11 14 6 16
ROOT
ATOM      1  C   UNL     1      -7.102  -2.488 -30.016  1.00  0.00     0.050 C 
ATOM      2  C   UNL     1      -8.197  -2.587 -30.791  1.00  0.00     0.122 C 
ENDROOT
BRANCH   1   3
ATOM      3  C   UNL     1      -6.432  -1.264 -29.626  1.00  0.00     0.042 C 
ATOM      4  C   UNL     1      -5.463  -0.706 -30.362  1.00  0.00     0.183 C 
BRANCH   4   5
ATOM      5  O   UNL     1      -4.809   0.450 -30.036  1.00  0.00    -0.516 OA
ATOM      6  H   UNL     1      -5.333   0.929 -29.370  1.00  0.00     0.292 HD
ENDBRANCH   4   5
ENDBRANCH   1   3
BRANCH   2   7
ATOM      7  C   UNL     1      -8.935  -1.447 -31.358  1.00  0.00     0.017 A 
ATOM      8  C   UNL     1      -8.729  -1.077 -32.694  1.00  0.00     0.016 A 
ATOM      9  C   UNL     1      -9.858  -0.732 -30.585  1.00  0.00     0.016 A 
ATOM     10  C   UNL     1      -9.421   0.005 -33.245  1.00  0.00     0.047 A 
ATOM     11  C   UNL     1     -10.550   0.351 -31.133  1.00  0.00     0.047 A 
ATOM     12  C   UNL     1     -10.324   0.711 -32.457  1.00  0.00     0.115 A 
BRANCH  12  13
ATOM     13  O   UNL     1     -11.020   1.773 -32.952  1.00  0.00    -0.508 OA
ATOM     14  H   UNL     1     -11.849   1.447 -33.337  1.00  0.00     0.293 HD
ENDBRANCH  12  13
ENDBRANCH   2   7
BRANCH   2  15
ATOM     15  O   UNL     1      -8.730  -3.808 -31.150  1.00  0.00    -0.507 OA
ATOM     16  H   UNL     1      -8.551  -3.963 -32.092  1.00  0.00     0.293 HD
ENDBRANCH   2  15
TORSDOF 5
ENDMDL
MODEL 9
REMARK VINA RESULT:      -5.6     12.859     15.339
REMARK SMILES OC=CC=C(O)c1ccc(O)cc1
REMARK SMILES IDX 4 1 5 2 3 3 2 4 1 5 7 7 8 8 13 9 9 10 12 11 10 12 11 13 6 15
REMARK H PARENT 1 6 11 14 6 16
ROOT
ATOM      1  C   UNL     1      -6.877  -1.644 -30.028  1.00  0.00     0.050 C 
ATOM      2  C   UNL     1      -6.120  -1.832 -28.932  1.00  0.00     0.122 C 
ENDROOT
BRANCH   1   3
ATOM      3  C   UNL     1      -6.665  -0.650 -31.060  1.00  0.00     0.042 C 
ATOM      4  C   UNL     1      -7.620  -0.298 -31.929  1.00  0.00     0.183 C 
BRANCH   4   5
ATOM      5  O   UNL     1      -7.466   0.640 -32.913  1.00  0.00    -0.516 OA
ATOM      6  H   UNL     1      -8.311   0.739 -33.386  1.00  0.00     0.292 HD
ENDBRANCH   4   5
ENDBRANCH   1   3
BRANCH   2   7
ATOM      7  C   UNL     1      -4.906  -1.069 -28.605  1.00  0.00     0.017 A 
ATOM      8  C   UNL     1      -4.954  -0.067 -27.626  1.00  0.00     0.016 A 
ATOM      9  C   UNL     1      -3.690  -1.339 -29.248  1.00  0.00     0.016 A 
ATOM     10  C   UNL     1      -3.808   0.668 -27.306  1.00  0.00     0.047 A 
ATOM     11  C   UNL     1      -2.546  -0.605 -28.930  1.00  0.00     0.047 A 
ATOM     12  C   UNL     1      -2.614   0.394 -27.965  1.00  0.00     0.115 A 
BRANCH  12  13
ATOM     13  O   UNL     1      -1.474   1.086 -27.686  1.00  0.00    -0.508 OA
ATOM     14  H   UNL     1      -0.760   0.746 -28.250  1.00  0.00     0.293 HD
ENDBRANCH  12  13
ENDBRANCH   2   7
BRANCH   2  15
ATOM     15  O   UNL     1      -6.438  -2.777 -27.977  1.00  0.00    -0.507 OA
ATOM     16  H   UNL     1      -5.616  -3.165 -27.635  1.00  0.00     0.293 HD
ENDBRANCH   2  15
TORSDOF 5
ENDMDL
MODEL 10
REMARK VINA RESULT:      -5.6     16.285     19.343
REMARK SMILES OC=CC=C(O)c1ccc(O)cc1
REMARK SMILES IDX 4 1 5 2 3 3 2 4 1 5 7 7 8 8 13 9 9 10 12 11 10 12 11 13 6 15
REMARK H PARENT 1 6 11 14 6 16
ROOT
ATOM      1  C   UNL     1      -5.513  -0.442 -30.777  1.00  0.00     0.050 C 
ATOM      2  C   UNL     1      -5.864   0.577 -31.582  1.00  0.00     0.122 C 
ENDROOT
BRANCH   1   3
ATOM      3  C   UNL     1      -6.412  -1.380 -30.135  1.00  0.00     0.042 C 
ATOM      4  C   UNL     1      -6.144  -1.938 -28.948  1.00  0.00     0.183 C 
BRANCH   4   5
ATOM      5  O   UNL     1      -6.966  -2.822 -28.304  1.00  0.00    -0.516 OA
ATOM      6  H   UNL     1      -7.859  -2.439 -28.252  1.00  0.00     0.292 HD
ENDBRANCH   4   5
ENDBRANCH   1   3
BRANCH   2   7
ATOM      7  C   UNL     1      -7.243   0.898 -31.983  1.00  0.00     0.017 A 
ATOM      8  C   UNL     1      -7.718   0.489 -33.236  1.00  0.00     0.016 A 
ATOM      9  C   UNL     1      -8.099   1.596 -31.121  1.00  0.00     0.016 A 
ATOM     10  C   UNL     1      -9.025   0.789 -33.631  1.00  0.00     0.047 A 
ATOM     11  C   UNL     1      -9.404   1.897 -31.515  1.00  0.00     0.047 A 
ATOM     12  C   UNL     1      -9.856   1.494 -32.767  1.00  0.00     0.115 A 
BRANCH  12  13
ATOM     13  O   UNL     1     -11.136   1.809 -33.111  1.00  0.00    -0.508 OA
ATOM     14  H   UNL     1     -11.710   1.650 -32.345  1.00  0.00     0.293 HD
ENDBRANCH  12  13
ENDBRANCH   2   7
BRANCH   2  15
ATOM     15  O   UNL     1      -4.932   1.450 -32.103  1.00  0.00    -0.507 OA
ATOM     16  H   UNL     1      -5.238   1.752 -32.973  1.00  0.00     0.293 HD
ENDBRANCH   2  15
TORSDOF 5
ENDMDL
