MODEL 1
REMARK VINA RESULT:      -7.0      0.000      0.000
REMARK SMILES O=C(O)/C=C/c1ccc([O-])cc1
REMARK SMILES IDX 5 1 4 2 6 3 7 4 8 5 9 6 12 7 11 8 10 9 2 10 1 11 3 12
REMARK H PARENT 3 13
ROOT
ATOM      1  C   UNL     1       6.062  -2.423 -20.595  1.00  0.00     0.015 C 
ATOM      2  C   UNL     1       5.519  -1.657 -21.552  1.00  0.00     0.094 C 
ENDROOT
BRANCH   1   3
ATOM      3  C   UNL     1       6.613  -1.851 -19.361  1.00  0.00    -0.025 A 
ATOM      4  C   UNL     1       7.663  -0.933 -19.373  1.00  0.00     0.007 A 
ATOM      5  C   UNL     1       8.152  -0.400 -18.171  1.00  0.00    -0.008 A 
ATOM      6  C   UNL     1       7.641  -0.749 -16.909  1.00  0.00    -0.109 A 
ATOM      7  C   UNL     1       6.097  -2.246 -18.130  1.00  0.00     0.007 A 
ATOM      8  C   UNL     1       6.603  -1.698 -16.941  1.00  0.00    -0.008 A 
ATOM      9  O   UNL     1       8.086  -0.250 -15.825  1.00  0.00    -0.872 OA
ENDBRANCH   1   3
BRANCH   2  10
ATOM     10  C   UNL     1       4.952  -2.274 -22.764  1.00  0.00     0.328 C 
ATOM     11  O   UNL     1       4.189  -3.225 -22.778  1.00  0.00    -0.247 OA
BRANCH  10  12
ATOM     12  O   UNL     1       5.380  -1.658 -23.886  1.00  0.00    -0.478 OA
ATOM     13  H   UNL     1       4.780  -0.966 -24.218  1.00  0.00     0.297 HD
ENDBRANCH  10  12
ENDBRANCH   2  10
TORSDOF 3
ENDMDL
MODEL 2
REMARK VINA RESULT:      -6.1     12.819     13.826
REMARK SMILES O=C(O)/C=C/c1ccc([O-])cc1
REMARK SMILES IDX 5 1 4 2 6 3 7 4 8 5 9 6 12 7 11 8 10 9 2 10 1 11 3 12
REMARK H PARENT 3 13
ROOT
ATOM      1  C   UNL     1      -5.392  -1.294 -25.928  1.00  0.00     0.015 C 
ATOM      2  C   UNL     1      -5.753  -0.459 -24.942  1.00  0.00     0.094 C 
ENDROOT
BRANCH   1   3
ATOM      3  C   UNL     1      -4.397  -0.917 -26.938  1.00  0.00    -0.025 A 
ATOM      4  C   UNL     1      -4.112  -1.728 -28.036  1.00  0.00     0.007 A 
ATOM      5  C   UNL     1      -3.161  -1.325 -28.987  1.00  0.00    -0.008 A 
ATOM      6  C   UNL     1      -2.446  -0.119 -28.897  1.00  0.00    -0.109 A 
ATOM      7  C   UNL     1      -3.689   0.273 -26.796  1.00  0.00     0.007 A 
ATOM      8  C   UNL     1      -2.743   0.655 -27.761  1.00  0.00    -0.008 A 
ATOM      9  O   UNL     1      -1.593   0.242 -29.772  1.00  0.00    -0.872 OA
ENDBRANCH   1   3
BRANCH   2  10
ATOM     10  C   UNL     1      -6.735  -0.887 -23.931  1.00  0.00     0.328 C 
ATOM     11  O   UNL     1      -7.602  -0.180 -23.447  1.00  0.00    -0.247 OA
BRANCH  10  12
ATOM     12  O   UNL     1      -6.568  -2.182 -23.587  1.00  0.00    -0.478 OA
ATOM     13  H   UNL     1      -5.749  -2.363 -23.092  1.00  0.00     0.297 HD
ENDBRANCH  10  12
ENDBRANCH   2  10
TORSDOF 3
ENDMDL
MODEL 3
REMARK VINA RESULT:      -6.0     11.536     13.776
REMARK SMILES O=C(O)/C=C/c1ccc([O-])cc1
REMARK SMILES IDX 5 1 4 2 6 3 7 4 8 5 9 6 12 7 11 8 10 9 2 10 1 11 3 12
REMARK H PARENT 3 13
ROOT
ATOM      1  C   UNL     1       0.806 -10.205 -25.378  1.00  0.00     0.015 C 
ATOM      2  C   UNL     1       0.899 -11.275 -24.575  1.00  0.00     0.094 C 
ENDROOT
BRANCH   1   3
ATOM      3  C   UNL     1      -0.331 -10.011 -26.284  1.00  0.00    -0.025 A 
ATOM      4  C   UNL     1      -0.718 -10.982 -27.206  1.00  0.00     0.007 A 
ATOM      5  C   UNL     1      -1.820 -10.762 -28.047  1.00  0.00    -0.008 A 
ATOM      6  C   UNL     1      -2.581  -9.580 -28.025  1.00  0.00    -0.109 A 
ATOM      7  C   UNL     1      -1.040  -8.813 -26.250  1.00  0.00     0.007 A 
ATOM      8  C   UNL     1      -2.140  -8.617 -27.101  1.00  0.00    -0.008 A 
ATOM      9  O   UNL     1      -3.586  -9.396 -28.786  1.00  0.00    -0.872 OA
ENDBRANCH   1   3
BRANCH   2  10
ATOM     10  C   UNL     1       2.045 -11.418 -23.659  1.00  0.00     0.328 C 
ATOM     11  O   UNL     1       2.179 -12.303 -22.831  1.00  0.00    -0.247 OA
BRANCH  10  12
ATOM     12  O   UNL     1       2.955 -10.437 -23.839  1.00  0.00    -0.478 OA
ATOM     13  H   UNL     1       2.889  -9.706 -23.199  1.00  0.00     0.297 HD
ENDBRANCH  10  12
ENDBRANCH   2  10
TORSDOF 3
ENDMDL
MODEL 4
REMARK VINA RESULT:      -6.0     15.794     19.299
REMARK SMILES O=C(O)/C=C/c1ccc([O-])cc1
REMARK SMILES IDX 5 1 4 2 6 3 7 4 8 5 9 6 12 7 11 8 10 9 2 10 1 11 3 12
REMARK H PARENT 3 13
ROOT
ATOM      1  C   UNL     1      -6.241   1.169 -31.928  1.00  0.00     0.015 C 
ATOM      2  C   UNL     1      -5.411   0.309 -31.318  1.00  0.00     0.094 C 
ENDROOT
BRANCH   1   3
ATOM      3  C   UNL     1      -7.629   0.814 -32.246  1.00  0.00    -0.025 A 
ATOM      4  C   UNL     1      -8.060   0.613 -33.557  1.00  0.00     0.007 A 
ATOM      5  C   UNL     1      -9.394   0.263 -33.818  1.00  0.00    -0.008 A 
ATOM      6  C   UNL     1     -10.361   0.105 -32.810  1.00  0.00    -0.109 A 
ATOM      7  C   UNL     1      -8.562   0.697 -31.220  1.00  0.00     0.007 A 
ATOM      8  C   UNL     1      -9.890   0.345 -31.506  1.00  0.00    -0.008 A 
ATOM      9  O   UNL     1     -11.566  -0.224 -33.058  1.00  0.00    -0.872 OA
ENDBRANCH   1   3
BRANCH   2  10
ATOM     10  C   UNL     1      -4.033   0.715 -30.991  1.00  0.00     0.328 C 
ATOM     11  O   UNL     1      -3.672   1.185 -29.926  1.00  0.00    -0.247 OA
BRANCH  10  12
ATOM     12  O   UNL     1      -3.191   0.505 -32.025  1.00  0.00    -0.478 OA
ATOM     13  H   UNL     1      -3.634   0.326 -32.874  1.00  0.00     0.297 HD
ENDBRANCH  10  12
ENDBRANCH   2  10
TORSDOF 3
ENDMDL
MODEL 5
REMARK VINA RESULT:      -5.8      2.575      6.290
REMARK SMILES O=C(O)/C=C/c1ccc([O-])cc1
REMARK SMILES IDX 5 1 4 2 6 3 7 4 8 5 9 6 12 7 11 8 10 9 2 10 1 11 3 12
REMARK H PARENT 3 13
ROOT
ATOM      1  C   UNL     1       7.971   0.918 -16.688  1.00  0.00     0.015 C 
ATOM      2  C   UNL     1       9.073   0.840 -15.928  1.00  0.00     0.094 C 
ENDROOT
BRANCH   1   3
ATOM      3  C   UNL     1       7.469  -0.232 -17.448  1.00  0.00    -0.025 A 
ATOM      4  C   UNL     1       7.857  -0.477 -18.765  1.00  0.00     0.007 A 
ATOM      5  C   UNL     1       7.364  -1.595 -19.453  1.00  0.00    -0.008 A 
ATOM      6  C   UNL     1       6.464  -2.514 -18.885  1.00  0.00    -0.109 A 
ATOM      7  C   UNL     1       6.556  -1.101 -16.858  1.00  0.00     0.007 A 
ATOM      8  C   UNL     1       6.077  -2.215 -17.567  1.00  0.00    -0.008 A 
ATOM      9  O   UNL     1       6.031  -3.532 -19.516  1.00  0.00    -0.872 OA
ENDBRANCH   1   3
BRANCH   2  10
ATOM     10  C   UNL     1       9.527   2.011 -15.158  1.00  0.00     0.328 C 
ATOM     11  O   UNL     1      10.580   2.089 -14.549  1.00  0.00    -0.247 OA
BRANCH  10  12
ATOM     12  O   UNL     1       8.627   3.017 -15.199  1.00  0.00    -0.478 OA
ATOM     13  H   UNL     1       8.987   3.865 -15.514  1.00  0.00     0.297 HD
ENDBRANCH  10  12
ENDBRANCH   2  10
TORSDOF 3
ENDMDL
MODEL 6
REMARK VINA RESULT:      -5.8     15.585     18.552
REMARK SMILES O=C(O)/C=C/c1ccc([O-])cc1
REMARK SMILES IDX 5 1 4 2 6 3 7 4 8 5 9 6 12 7 11 8 10 9 2 10 1 11 3 12
REMARK H PARENT 3 13
ROOT
ATOM      1  C   UNL     1      -8.386   0.158 -31.982  1.00  0.00     0.015 C 
ATOM      2  C   UNL     1      -8.875   0.849 -33.022  1.00  0.00     0.094 C 
ENDROOT
BRANCH   1   3
ATOM      3  C   UNL     1      -6.960   0.180 -31.636  1.00  0.00    -0.025 A 
ATOM      4  C   UNL     1      -6.090   1.146 -32.140  1.00  0.00     0.007 A 
ATOM      5  C   UNL     1      -4.735   1.138 -31.774  1.00  0.00    -0.008 A 
ATOM      6  C   UNL     1      -4.176   0.182 -30.909  1.00  0.00    -0.109 A 
ATOM      7  C   UNL     1      -6.441  -0.804 -30.799  1.00  0.00     0.007 A 
ATOM      8  C   UNL     1      -5.082  -0.789 -30.447  1.00  0.00    -0.008 A 
ATOM      9  O   UNL     1      -2.947   0.192 -30.576  1.00  0.00    -0.872 OA
ENDBRANCH   1   3
BRANCH   2  10
ATOM     10  C   UNL     1     -10.318   0.822 -33.318  1.00  0.00     0.328 C 
ATOM     11  O   UNL     1     -10.926  -0.131 -33.776  1.00  0.00    -0.247 OA
BRANCH  10  12
ATOM     12  O   UNL     1     -10.912   1.998 -33.021  1.00  0.00    -0.478 OA
ATOM     13  H   UNL     1     -11.883   1.985 -33.089  1.00  0.00     0.297 HD
ENDBRANCH  10  12
ENDBRANCH   2  10
TORSDOF 3
ENDMDL
MODEL 7
REMARK VINA RESULT:      -5.8      2.323      3.365
REMARK SMILES O=C(O)/C=C/c1ccc([O-])cc1
REMARK SMILES IDX 5 1 4 2 6 3 7 4 8 5 9 6 12 7 11 8 10 9 2 10 1 11 3 12
REMARK H PARENT 3 13
ROOT
ATOM      1  C   UNL     1       5.251  -1.672 -23.249  1.00  0.00     0.015 C 
ATOM      2  C   UNL     1       4.002  -1.767 -23.729  1.00  0.00     0.094 C 
ENDROOT
BRANCH   1   3
ATOM      3  C   UNL     1       5.594  -2.103 -21.889  1.00  0.00    -0.025 A 
ATOM      4  C   UNL     1       5.175  -3.328 -21.371  1.00  0.00     0.007 A 
ATOM      5  C   UNL     1       5.536  -3.707 -20.070  1.00  0.00    -0.008 A 
ATOM      6  C   UNL     1       6.313  -2.901 -19.219  1.00  0.00    -0.109 A 
ATOM      7  C   UNL     1       6.341  -1.261 -21.070  1.00  0.00     0.007 A 
ATOM      8  C   UNL     1       6.690  -1.663 -19.771  1.00  0.00    -0.008 A 
ATOM      9  O   UNL     1       6.644  -3.261 -18.043  1.00  0.00    -0.872 OA
ENDBRANCH   1   3
BRANCH   2  10
ATOM     10  C   UNL     1       3.705  -1.349 -25.110  1.00  0.00     0.328 C 
ATOM     11  O   UNL     1       4.085  -1.921 -26.117  1.00  0.00    -0.247 OA
BRANCH  10  12
ATOM     12  O   UNL     1       2.945  -0.233 -25.143  1.00  0.00    -0.478 OA
ATOM     13  H   UNL     1       2.074  -0.328 -24.718  1.00  0.00     0.297 HD
ENDBRANCH  10  12
ENDBRANCH   2  10
TORSDOF 3
ENDMDL
MODEL 8
REMARK VINA RESULT:      -5.8     15.612     19.188
REMARK SMILES O=C(O)/C=C/c1ccc([O-])cc1
REMARK SMILES IDX 5 1 4 2 6 3 7 4 8 5 9 6 12 7 11 8 10 9 2 10 1 11 3 12
REMARK H PARENT 3 13
ROOT
ATOM      1  C   UNL     1      -5.996   0.954 -31.884  1.00  0.00     0.015 C 
ATOM      2  C   UNL     1      -5.236   0.089 -31.198  1.00  0.00     0.094 C 
ENDROOT
BRANCH   1   3
ATOM      3  C   UNL     1      -7.374   0.635 -32.276  1.00  0.00    -0.025 A 
ATOM      4  C   UNL     1      -7.987  -0.566 -31.921  1.00  0.00     0.007 A 
ATOM      5  C   UNL     1      -9.311  -0.826 -32.307  1.00  0.00    -0.008 A 
ATOM      6  C   UNL     1     -10.085   0.072 -33.062  1.00  0.00    -0.109 A 
ATOM      7  C   UNL     1      -8.095   1.541 -33.050  1.00  0.00     0.007 A 
ATOM      8  C   UNL     1      -9.419   1.257 -33.422  1.00  0.00    -0.008 A 
ATOM      9  O   UNL     1     -11.289  -0.171 -33.396  1.00  0.00    -0.872 OA
ENDBRANCH   1   3
BRANCH   2  10
ATOM     10  C   UNL     1      -3.866   0.459 -30.799  1.00  0.00     0.328 C 
ATOM     11  O   UNL     1      -3.517   0.750 -29.668  1.00  0.00    -0.247 OA
BRANCH  10  12
ATOM     12  O   UNL     1      -3.017   0.442 -31.849  1.00  0.00    -0.478 OA
ATOM     13  H   UNL     1      -2.247   1.030 -31.752  1.00  0.00     0.297 HD
ENDBRANCH  10  12
ENDBRANCH   2  10
TORSDOF 3
ENDMDL
MODEL 9
REMARK VINA RESULT:      -5.8      2.278      3.286
REMARK SMILES O=C(O)/C=C/c1ccc([O-])cc1
REMARK SMILES IDX 5 1 4 2 6 3 7 4 8 5 9 6 12 7 11 8 10 9 2 10 1 11 3 12
REMARK H PARENT 3 13
ROOT
ATOM      1  C   UNL     1       8.034  -0.976 -18.804  1.00  0.00     0.015 C 
ATOM      2  C   UNL     1       6.791  -1.463 -18.931  1.00  0.00     0.094 C 
ENDROOT
BRANCH   1   3
ATOM      3  C   UNL     1       8.463  -0.245 -17.606  1.00  0.00    -0.025 A 
ATOM      4  C   UNL     1       7.880   0.963 -17.226  1.00  0.00     0.007 A 
ATOM      5  C   UNL     1       8.311   1.624 -16.066  1.00  0.00    -0.008 A 
ATOM      6  C   UNL     1       9.334   1.134 -15.235  1.00  0.00    -0.109 A 
ATOM      7  C   UNL     1       9.500  -0.751 -16.827  1.00  0.00     0.007 A 
ATOM      8  C   UNL     1       9.913  -0.072 -15.669  1.00  0.00    -0.008 A 
ATOM      9  O   UNL     1       9.709   1.737 -14.178  1.00  0.00    -0.872 OA
ENDBRANCH   1   3
BRANCH   2  10
ATOM     10  C   UNL     1       6.410  -2.215 -20.140  1.00  0.00     0.328 C 
ATOM     11  O   UNL     1       5.837  -1.748 -21.109  1.00  0.00    -0.247 OA
BRANCH  10  12
ATOM     12  O   UNL     1       6.773  -3.513 -20.056  1.00  0.00    -0.478 OA
ATOM     13  H   UNL     1       7.485  -3.771 -20.669  1.00  0.00     0.297 HD
ENDBRANCH  10  12
ENDBRANCH   2  10
TORSDOF 3
ENDMDL
MODEL 10
REMARK VINA RESULT:      -5.7     15.669     18.518
REMARK SMILES O=C(O)/C=C/c1ccc([O-])cc1
REMARK SMILES IDX 5 1 4 2 6 3 7 4 8 5 9 6 12 7 11 8 10 9 2 10 1 11 3 12
REMARK H PARENT 3 13
ROOT
ATOM      1  C   UNL     1      -8.595   1.614 -31.753  1.00  0.00     0.015 C 
ATOM      2  C   UNL     1      -9.191   0.574 -32.354  1.00  0.00     0.094 C 
ENDROOT
BRANCH   1   3
ATOM      3  C   UNL     1      -7.241   1.518 -31.196  1.00  0.00    -0.025 A 
ATOM      4  C   UNL     1      -6.779   2.393 -30.215  1.00  0.00     0.007 A 
ATOM      5  C   UNL     1      -5.480   2.259 -29.700  1.00  0.00    -0.008 A 
ATOM      6  C   UNL     1      -4.579   1.270 -30.131  1.00  0.00    -0.109 A 
ATOM      7  C   UNL     1      -6.370   0.541 -31.673  1.00  0.00     0.007 A 
ATOM      8  C   UNL     1      -5.076   0.427 -31.141  1.00  0.00    -0.008 A 
ATOM      9  O   UNL     1      -3.406   1.151 -29.649  1.00  0.00    -0.872 OA
ENDBRANCH   1   3
BRANCH   2  10
ATOM     10  C   UNL     1     -10.542   0.721 -32.924  1.00  0.00     0.328 C 
ATOM     11  O   UNL     1     -11.262  -0.197 -33.277  1.00  0.00    -0.247 OA
BRANCH  10  12
ATOM     12  O   UNL     1     -10.907   2.018 -33.016  1.00  0.00    -0.478 OA
ATOM     13  H   UNL     1     -10.208   2.609 -33.349  1.00  0.00     0.297 HD
ENDBRANCH  10  12
ENDBRANCH   2  10
TORSDOF 3
ENDMDL
