MODEL 1
REMARK VINA RESULT:      -5.8      0.000      0.000
REMARK SMILES C=CC[S@](=O)C[C@H](N)C(=O)O
REMARK SMILES IDX 6 1 4 2 5 3 3 4 2 5 1 6 7 7 9 8 10 9 11 10 8 12
REMARK H PARENT 11 11 8 13 8 14
ROOT
ATOM      1  C   UNL     1      -1.481 -10.413 -27.332  1.00  0.00     0.136 C 
ENDROOT
BRANCH   1   2
ATOM      2  S   UNL     1      -2.901  -9.259 -27.340  1.00  0.00     0.027 S 
ATOM      3  O   UNL     1      -2.857  -8.528 -28.655  1.00  0.00    -0.259 OA
BRANCH   2   4
ATOM      4  C   UNL     1      -4.203 -10.540 -27.442  1.00  0.00     0.131 C 
BRANCH   4   5
ATOM      5  C   UNL     1      -5.336 -10.189 -26.527  1.00  0.00    -0.021 C 
ATOM      6  C   UNL     1      -5.994 -11.069 -25.759  1.00  0.00     0.005 C 
ENDBRANCH   4   5
ENDBRANCH   2   4
ENDBRANCH   1   2
BRANCH   1   7
ATOM      7  C   UNL     1      -0.319  -9.879 -26.491  1.00  0.00     0.174 C 
BRANCH   7   8
ATOM      8  C   UNL     1       0.471 -11.042 -25.857  1.00  0.00     0.321 C 
ATOM      9  O   UNL     1       0.492 -12.172 -26.333  1.00  0.00    -0.251 OA
BRANCH   8  10
ATOM     10  O   UNL     1       1.157 -10.728 -24.740  1.00  0.00    -0.480 OA
ATOM     11  H   UNL     1       1.682 -11.471 -24.345  1.00  0.00     0.296 HD
ENDBRANCH   8  10
ENDBRANCH   7   8
BRANCH   7  12
ATOM     12  N   UNL     1       0.593  -9.093 -27.369  1.00  0.00    -0.318 NA
ATOM     13  H   UNL     1       0.370  -8.100 -27.232  1.00  0.00     0.119 HD
ATOM     14  H   UNL     1       0.301  -9.251 -28.339  1.00  0.00     0.119 HD
ENDBRANCH   7  12
ENDBRANCH   1   7
TORSDOF 7
ENDMDL
MODEL 2
REMARK VINA RESULT:      -5.7      3.132      5.202
REMARK SMILES C=CC[S@](=O)C[C@H](N)C(=O)O
REMARK SMILES IDX 6 1 4 2 5 3 3 4 2 5 1 6 7 7 9 8 10 9 11 10 8 12
REMARK H PARENT 11 11 8 13 8 14
ROOT
ATOM      1  C   UNL     1      -3.480 -10.535 -26.729  1.00  0.00     0.136 C 
ENDROOT
BRANCH   1   2
ATOM      2  S   UNL     1      -2.323  -9.891 -27.992  1.00  0.00     0.027 S 
ATOM      3  O   UNL     1      -3.076  -8.854 -28.780  1.00  0.00    -0.259 OA
BRANCH   2   4
ATOM      4  C   UNL     1      -1.210  -9.026 -26.825  1.00  0.00     0.131 C 
BRANCH   4   5
ATOM      5  C   UNL     1       0.076  -9.782 -26.692  1.00  0.00    -0.021 C 
ATOM      6  C   UNL     1       0.397 -10.557 -25.647  1.00  0.00     0.005 C 
ENDBRANCH   4   5
ENDBRANCH   2   4
ENDBRANCH   1   2
BRANCH   1   7
ATOM      7  C   UNL     1      -4.935 -10.208 -27.072  1.00  0.00     0.174 C 
BRANCH   7   8
ATOM      8  C   UNL     1      -5.892 -11.195 -26.372  1.00  0.00     0.321 C 
ATOM      9  O   UNL     1      -5.955 -11.309 -25.152  1.00  0.00    -0.251 OA
BRANCH   8  10
ATOM     10  O   UNL     1      -6.674 -11.919 -27.196  1.00  0.00    -0.480 OA
ATOM     11  H   UNL     1      -6.439 -11.863 -28.157  1.00  0.00     0.296 HD
ENDBRANCH   8  10
ENDBRANCH   7   8
BRANCH   7  12
ATOM     12  N   UNL     1      -5.243  -8.824 -26.613  1.00  0.00    -0.318 NA
ATOM     13  H   UNL     1      -5.874  -8.405 -27.306  1.00  0.00     0.119 HD
ATOM     14  H   UNL     1      -4.391  -8.264 -26.728  1.00  0.00     0.119 HD
ENDBRANCH   7  12
ENDBRANCH   1   7
TORSDOF 7
ENDMDL
MODEL 3
REMARK VINA RESULT:      -5.3     13.455     14.967
REMARK SMILES C=CC[S@](=O)C[C@H](N)C(=O)O
REMARK SMILES IDX 6 1 4 2 5 3 3 4 2 5 1 6 7 7 9 8 10 9 11 10 8 12
REMARK H PARENT 11 11 8 13 8 14
ROOT
ATOM      1  C   UNL     1       6.495  -1.115 -18.616  1.00  0.00     0.136 C 
ENDROOT
BRANCH   1   2
ATOM      2  S   UNL     1       6.816  -2.441 -19.835  1.00  0.00     0.027 S 
ATOM      3  O   UNL     1       6.063  -3.655 -19.362  1.00  0.00    -0.259 OA
BRANCH   2   4
ATOM      4  C   UNL     1       5.876  -1.684 -21.210  1.00  0.00     0.131 C 
BRANCH   4   5
ATOM      5  C   UNL     1       5.162  -2.749 -21.986  1.00  0.00    -0.021 C 
ATOM      6  C   UNL     1       4.437  -2.526 -23.091  1.00  0.00     0.005 C 
ENDBRANCH   4   5
ENDBRANCH   2   4
ENDBRANCH   1   2
BRANCH   1   7
ATOM      7  C   UNL     1       7.761  -0.317 -18.297  1.00  0.00     0.174 C 
BRANCH   7   8
ATOM      8  C   UNL     1       7.646   0.355 -16.913  1.00  0.00     0.321 C 
ATOM      9  O   UNL     1       7.882  -0.236 -15.864  1.00  0.00    -0.251 OA
BRANCH   8  10
ATOM     10  O   UNL     1       7.280   1.652 -16.932  1.00  0.00    -0.480 OA
ATOM     11  H   UNL     1       7.066   2.042 -16.047  1.00  0.00     0.296 HD
ENDBRANCH   8  10
ENDBRANCH   7   8
BRANCH   7  12
ATOM     12  N   UNL     1       8.930  -1.242 -18.292  1.00  0.00    -0.318 NA
ATOM     13  H   UNL     1       9.770  -0.676 -18.459  1.00  0.00     0.119 HD
ATOM     14  H   UNL     1       8.877  -1.810 -19.145  1.00  0.00     0.119 HD
ENDBRANCH   7  12
ENDBRANCH   1   7
TORSDOF 7
ENDMDL
MODEL 4
REMARK VINA RESULT:      -5.2      1.705      1.927
REMARK SMILES C=CC[S@](=O)C[C@H](N)C(=O)O
REMARK SMILES IDX 6 1 4 2 5 3 3 4 2 5 1 6 7 7 9 8 10 9 11 10 8 12
REMARK H PARENT 11 11 8 13 8 14
ROOT
ATOM      1  C   UNL     1      -0.915 -10.216 -25.867  1.00  0.00     0.136 C 
ENDROOT
BRANCH   1   2
ATOM      2  S   UNL     1      -1.225  -8.557 -26.574  1.00  0.00     0.027 S 
ATOM      3  O   UNL     1      -0.000  -8.188 -27.367  1.00  0.00    -0.259 OA
BRANCH   2   4
ATOM      4  C   UNL     1      -2.530  -9.078 -27.747  1.00  0.00     0.131 C 
BRANCH   4   5
ATOM      5  C   UNL     1      -3.881  -8.804 -27.161  1.00  0.00    -0.021 C 
ATOM      6  C   UNL     1      -4.859  -9.714 -27.050  1.00  0.00     0.005 C 
ENDBRANCH   4   5
ENDBRANCH   2   4
ENDBRANCH   1   2
BRANCH   1   7
ATOM      7  C   UNL     1       0.375 -10.834 -26.411  1.00  0.00     0.174 C 
BRANCH   7   8
ATOM      8  C   UNL     1       0.794 -12.052 -25.562  1.00  0.00     0.321 C 
ATOM      9  O   UNL     1       0.633 -13.210 -25.934  1.00  0.00    -0.251 OA
BRANCH   8  10
ATOM     10  O   UNL     1       1.369 -11.758 -24.379  1.00  0.00    -0.480 OA
ATOM     11  H   UNL     1       0.741 -11.657 -23.619  1.00  0.00     0.296 HD
ENDBRANCH   8  10
ENDBRANCH   7   8
BRANCH   7  12
ATOM     12  N   UNL     1       0.146 -11.276 -27.816  1.00  0.00    -0.318 NA
ATOM     13  H   UNL     1       0.717 -12.115 -27.970  1.00  0.00     0.119 HD
ATOM     14  H   UNL     1       0.595 -10.590 -28.432  1.00  0.00     0.119 HD
ENDBRANCH   7  12
ENDBRANCH   1   7
TORSDOF 7
ENDMDL
MODEL 5
REMARK VINA RESULT:      -5.1      2.757      3.436
REMARK SMILES C=CC[S@](=O)C[C@H](N)C(=O)O
REMARK SMILES IDX 6 1 4 2 5 3 3 4 2 5 1 6 7 7 9 8 10 9 11 10 8 12
REMARK H PARENT 11 11 8 13 8 14
ROOT
ATOM      1  C   UNL     1       0.068 -11.225 -25.199  1.00  0.00     0.136 C 
ENDROOT
BRANCH   1   2
ATOM      2  S   UNL     1      -0.051 -10.651 -26.932  1.00  0.00     0.027 S 
ATOM      3  O   UNL     1      -0.843 -11.690 -27.679  1.00  0.00    -0.259 OA
BRANCH   2   4
ATOM      4  C   UNL     1      -1.148  -9.226 -26.599  1.00  0.00     0.131 C 
BRANCH   4   5
ATOM      5  C   UNL     1      -2.056  -8.997 -27.768  1.00  0.00    -0.021 C 
ATOM      6  C   UNL     1      -3.389  -9.132 -27.733  1.00  0.00     0.005 C 
ENDBRANCH   4   5
ENDBRANCH   2   4
ENDBRANCH   1   2
BRANCH   1   7
ATOM      7  C   UNL     1       1.117 -12.327 -25.035  1.00  0.00     0.174 C 
BRANCH   7   8
ATOM      8  C   UNL     1       0.854 -13.142 -23.752  1.00  0.00     0.321 C 
ATOM      9  O   UNL     1       0.089 -14.101 -23.717  1.00  0.00    -0.251 OA
BRANCH   8  10
ATOM     10  O   UNL     1       1.538 -12.737 -22.664  1.00  0.00    -0.480 OA
ATOM     11  H   UNL     1       1.843 -11.794 -22.684  1.00  0.00     0.296 HD
ENDBRANCH   8  10
ENDBRANCH   7   8
BRANCH   7  12
ATOM     12  N   UNL     1       1.051 -13.239 -26.212  1.00  0.00    -0.318 NA
ATOM     13  H   UNL     1       0.263 -12.931 -26.795  1.00  0.00     0.119 HD
ATOM     14  H   UNL     1       0.730 -14.153 -25.877  1.00  0.00     0.119 HD
ENDBRANCH   7  12
ENDBRANCH   1   7
TORSDOF 7
ENDMDL
MODEL 6
REMARK VINA RESULT:      -4.9     14.555     16.109
REMARK SMILES C=CC[S@](=O)C[C@H](N)C(=O)O
REMARK SMILES IDX 6 1 4 2 5 3 3 4 2 5 1 6 7 7 9 8 10 9 11 10 8 12
REMARK H PARENT 11 11 8 13 8 14
ROOT
ATOM      1  C   UNL     1       6.732  -0.787 -17.334  1.00  0.00     0.136 C 
ENDROOT
BRANCH   1   2
ATOM      2  S   UNL     1       7.283  -1.001 -19.065  1.00  0.00     0.027 S 
ATOM      3  O   UNL     1       8.746  -1.351 -19.014  1.00  0.00    -0.259 OA
BRANCH   2   4
ATOM      4  C   UNL     1       6.340  -2.535 -19.390  1.00  0.00     0.131 C 
BRANCH   4   5
ATOM      5  C   UNL     1       6.351  -2.839 -20.857  1.00  0.00    -0.021 C 
ATOM      6  C   UNL     1       5.565  -2.240 -21.763  1.00  0.00     0.005 C 
ENDBRANCH   4   5
ENDBRANCH   2   4
ENDBRANCH   1   2
BRANCH   1   7
ATOM      7  C   UNL     1       7.553   0.277 -16.603  1.00  0.00     0.174 C 
BRANCH   7   8
ATOM      8  C   UNL     1       8.624  -0.381 -15.710  1.00  0.00     0.321 C 
ATOM      9  O   UNL     1       9.302   0.251 -14.906  1.00  0.00    -0.251 OA
BRANCH   8  10
ATOM     10  O   UNL     1       8.757  -1.714 -15.859  1.00  0.00    -0.480 OA
ATOM     11  H   UNL     1       9.185  -2.183 -15.098  1.00  0.00     0.296 HD
ENDBRANCH   8  10
ENDBRANCH   7   8
BRANCH   7  12
ATOM     12  N   UNL     1       8.227   1.146 -17.610  1.00  0.00    -0.318 NA
ATOM     13  H   UNL     1       7.749   2.055 -17.600  1.00  0.00     0.119 HD
ATOM     14  H   UNL     1       7.988   0.784 -18.539  1.00  0.00     0.119 HD
ENDBRANCH   7  12
ENDBRANCH   1   7
TORSDOF 7
ENDMDL
MODEL 7
REMARK VINA RESULT:      -4.9     14.719     16.225
REMARK SMILES C=CC[S@](=O)C[C@H](N)C(=O)O
REMARK SMILES IDX 6 1 4 2 5 3 3 4 2 5 1 6 7 7 9 8 10 9 11 10 8 12
REMARK H PARENT 11 11 8 13 8 14
ROOT
ATOM      1  C   UNL     1       8.356  -0.553 -18.357  1.00  0.00     0.136 C 
ENDROOT
BRANCH   1   2
ATOM      2  S   UNL     1       6.898  -1.658 -18.373  1.00  0.00     0.027 S 
ATOM      3  O   UNL     1       5.863  -1.022 -17.485  1.00  0.00    -0.259 OA
BRANCH   2   4
ATOM      4  C   UNL     1       6.427  -1.346 -20.114  1.00  0.00     0.131 C 
BRANCH   4   5
ATOM      5  C   UNL     1       6.076  -2.638 -20.786  1.00  0.00    -0.021 C 
ATOM      6  C   UNL     1       5.305  -2.742 -21.877  1.00  0.00     0.005 C 
ENDBRANCH   4   5
ENDBRANCH   2   4
ENDBRANCH   1   2
BRANCH   1   7
ATOM      7  C   UNL     1       8.971  -0.444 -16.960  1.00  0.00     0.174 C 
BRANCH   7   8
ATOM      8  C   UNL     1       8.622   0.914 -16.317  1.00  0.00     0.321 C 
ATOM      9  O   UNL     1       9.306   1.431 -15.440  1.00  0.00    -0.251 OA
BRANCH   8  10
ATOM     10  O   UNL     1       7.513   1.509 -16.798  1.00  0.00    -0.480 OA
ATOM     11  H   UNL     1       7.076   2.149 -16.179  1.00  0.00     0.296 HD
ENDBRANCH   8  10
ENDBRANCH   7   8
BRANCH   7  12
ATOM     12  N   UNL     1       8.431  -1.539 -16.105  1.00  0.00    -0.318 NA
ATOM     13  H   UNL     1       8.961  -2.390 -16.326  1.00  0.00     0.119 HD
ATOM     14  H   UNL     1       7.494  -1.769 -16.453  1.00  0.00     0.119 HD
ENDBRANCH   7  12
ENDBRANCH   1   7
TORSDOF 7
ENDMDL
MODEL 8
REMARK VINA RESULT:      -4.8      1.806      2.210
REMARK SMILES C=CC[S@](=O)C[C@H](N)C(=O)O
REMARK SMILES IDX 6 1 4 2 5 3 3 4 2 5 1 6 7 7 9 8 10 9 11 10 8 12
REMARK H PARENT 11 11 8 13 8 14
ROOT
ATOM      1  C   UNL     1      -1.119 -10.327 -26.089  1.00  0.00     0.136 C 
ENDROOT
BRANCH   1   2
ATOM      2  S   UNL     1      -1.746 -10.589 -27.788  1.00  0.00     0.027 S 
ATOM      3  O   UNL     1      -1.226 -11.927 -28.239  1.00  0.00    -0.259 OA
BRANCH   2   4
ATOM      4  C   UNL     1      -3.505 -10.785 -27.327  1.00  0.00     0.131 C 
BRANCH   4   5
ATOM      5  C   UNL     1      -4.179  -9.447 -27.309  1.00  0.00    -0.021 C 
ATOM      6  C   UNL     1      -3.539  -8.275 -27.187  1.00  0.00     0.005 C 
ENDBRANCH   4   5
ENDBRANCH   2   4
ENDBRANCH   1   2
BRANCH   1   7
ATOM      7  C   UNL     1       0.406 -10.430 -26.024  1.00  0.00     0.174 C 
BRANCH   7   8
ATOM      8  C   UNL     1       0.834 -11.784 -25.421  1.00  0.00     0.321 C 
ATOM      9  O   UNL     1       1.406 -11.881 -24.340  1.00  0.00    -0.251 OA
BRANCH   8  10
ATOM     10  O   UNL     1       0.520 -12.866 -26.160  1.00  0.00    -0.480 OA
ATOM     11  H   UNL     1       1.041 -12.971 -26.997  1.00  0.00     0.296 HD
ENDBRANCH   8  10
ENDBRANCH   7   8
BRANCH   7  12
ATOM     12  N   UNL     1       0.960 -10.315 -27.402  1.00  0.00    -0.318 NA
ATOM     13  H   UNL     1       1.519  -9.454 -27.438  1.00  0.00     0.119 HD
ATOM     14  H   UNL     1       0.181 -10.096 -28.031  1.00  0.00     0.119 HD
ENDBRANCH   7  12
ENDBRANCH   1   7
TORSDOF 7
ENDMDL
MODEL 9
REMARK VINA RESULT:      -4.8     14.925     16.773
REMARK SMILES C=CC[S@](=O)C[C@H](N)C(=O)O
REMARK SMILES IDX 6 1 4 2 5 3 3 4 2 5 1 6 7 7 9 8 10 9 11 10 8 12
REMARK H PARENT 11 11 8 13 8 14
ROOT
ATOM      1  C   UNL     1       8.121  -0.909 -18.731  1.00  0.00     0.136 C 
ENDROOT
BRANCH   1   2
ATOM      2  S   UNL     1       8.396   0.419 -17.503  1.00  0.00     0.027 S 
ATOM      3  O   UNL     1       7.056   0.728 -16.892  1.00  0.00    -0.259 OA
BRANCH   2   4
ATOM      4  C   UNL     1       9.346  -0.596 -16.314  1.00  0.00     0.131 C 
BRANCH   4   5
ATOM      5  C   UNL     1      10.294   0.272 -15.546  1.00  0.00    -0.021 C 
ATOM      6  C   UNL     1      11.619   0.314 -15.746  1.00  0.00     0.005 C 
ENDBRANCH   4   5
ENDBRANCH   2   4
ENDBRANCH   1   2
BRANCH   1   7
ATOM      7  C   UNL     1       6.662  -1.370 -18.753  1.00  0.00     0.174 C 
BRANCH   7   8
ATOM      8  C   UNL     1       6.408  -2.311 -19.948  1.00  0.00     0.321 C 
ATOM      9  O   UNL     1       5.966  -1.919 -21.023  1.00  0.00    -0.251 OA
BRANCH   8  10
ATOM     10  O   UNL     1       6.719  -3.605 -19.736  1.00  0.00    -0.480 OA
ATOM     11  H   UNL     1       7.688  -3.814 -19.754  1.00  0.00     0.296 HD
ENDBRANCH   8  10
ENDBRANCH   7   8
BRANCH   7  12
ATOM     12  N   UNL     1       6.364  -2.099 -17.487  1.00  0.00    -0.318 NA
ATOM     13  H   UNL     1       7.192  -2.659 -17.254  1.00  0.00     0.119 HD
ATOM     14  H   UNL     1       5.667  -2.819 -17.703  1.00  0.00     0.119 HD
ENDBRANCH   7  12
ENDBRANCH   1   7
TORSDOF 7
ENDMDL
MODEL 10
REMARK VINA RESULT:      -4.7     11.644     12.636
REMARK SMILES C=CC[S@](=O)C[C@H](N)C(=O)O
REMARK SMILES IDX 6 1 4 2 5 3 3 4 2 5 1 6 7 7 9 8 10 9 11 10 8 12
REMARK H PARENT 11 11 8 13 8 14
ROOT
ATOM      1  C   UNL     1      -6.162  -0.527 -30.839  1.00  0.00     0.136 C 
ENDROOT
BRANCH   1   2
ATOM      2  S   UNL     1      -7.377   0.594 -31.622  1.00  0.00     0.027 S 
ATOM      3  O   UNL     1      -6.709   1.176 -32.838  1.00  0.00    -0.259 OA
BRANCH   2   4
ATOM      4  C   UNL     1      -8.532  -0.713 -32.175  1.00  0.00     0.131 C 
BRANCH   4   5
ATOM      5  C   UNL     1      -9.114  -0.348 -33.506  1.00  0.00    -0.021 C 
ATOM      6  C   UNL     1     -10.301   0.251 -33.678  1.00  0.00     0.005 C 
ENDBRANCH   4   5
ENDBRANCH   2   4
ENDBRANCH   1   2
BRANCH   1   7
ATOM      7  C   UNL     1      -4.910   0.223 -30.379  1.00  0.00     0.174 C 
BRANCH   7   8
ATOM      8  C   UNL     1      -3.781   0.086 -31.422  1.00  0.00     0.321 C 
ATOM      9  O   UNL     1      -3.065  -0.906 -31.502  1.00  0.00    -0.251 OA
BRANCH   8  10
ATOM     10  O   UNL     1      -3.641   1.134 -32.258  1.00  0.00    -0.480 OA
ATOM     11  H   UNL     1      -2.823   1.676 -32.120  1.00  0.00     0.296 HD
ENDBRANCH   8  10
ENDBRANCH   7   8
BRANCH   7  12
ATOM     12  N   UNL     1      -5.243   1.666 -30.211  1.00  0.00    -0.318 NA
ATOM     13  H   UNL     1      -6.257   1.731 -30.062  1.00  0.00     0.119 HD
ATOM     14  H   UNL     1      -5.127   2.118 -31.124  1.00  0.00     0.119 HD
ENDBRANCH   7  12
ENDBRANCH   1   7
TORSDOF 7
ENDMDL
