MODEL 1
REMARK VINA RESULT:      -6.8      0.000      0.000
REMARK SMILES O=C(O)/C=C/c1ccc(O)c(O)c1
REMARK SMILES IDX 5 1 4 2 6 3 7 4 8 5 9 6 13 7 11 8 10 9 12 11 2 13 1 14 3 15
REMARK H PARENT 10 10 12 12 3 16
ROOT
ATOM      1  C   UNL     1       6.068  -2.382 -20.634  1.00  0.00     0.016 C 
ATOM      2  C   UNL     1       5.472  -1.639 -21.580  1.00  0.00     0.094 C 
ENDROOT
BRANCH   1   3
ATOM      3  C   UNL     1       6.619  -1.840 -19.384  1.00  0.00    -0.021 A 
ATOM      4  C   UNL     1       7.765  -1.028 -19.449  1.00  0.00     0.012 A 
ATOM      5  C   UNL     1       8.319  -0.467 -18.294  1.00  0.00     0.051 A 
ATOM      6  C   UNL     1       7.716  -0.711 -17.068  1.00  0.00     0.157 A 
ATOM      7  C   UNL     1       6.014  -2.060 -18.139  1.00  0.00     0.058 A 
ATOM      8  C   UNL     1       6.571  -1.501 -16.996  1.00  0.00     0.157 A 
BRANCH   6   9
ATOM      9  O   UNL     1       8.205  -0.193 -15.902  1.00  0.00    -0.504 OA
ATOM     10  H   UNL     1       8.354  -0.929 -15.282  1.00  0.00     0.293 HD
ENDBRANCH   6   9
BRANCH   8  11
ATOM     11  O   UNL     1       5.978  -1.731 -15.788  1.00  0.00    -0.504 OA
ATOM     12  H   UNL     1       6.375  -1.067 -15.189  1.00  0.00     0.293 HD
ENDBRANCH   8  11
ENDBRANCH   1   3
BRANCH   2  13
ATOM     13  C   UNL     1       4.937  -2.301 -22.787  1.00  0.00     0.328 C 
ATOM     14  O   UNL     1       4.246  -3.305 -22.778  1.00  0.00    -0.247 OA
BRANCH  13  15
ATOM     15  O   UNL     1       5.302  -1.665 -23.918  1.00  0.00    -0.478 OA
ATOM     16  H   UNL     1       5.965  -0.959 -23.808  1.00  0.00     0.297 HD
ENDBRANCH  13  15
ENDBRANCH   2  13
TORSDOF 5
ENDMDL
MODEL 2
REMARK VINA RESULT:      -6.4     15.836     18.691
REMARK SMILES O=C(O)/C=C/c1ccc(O)c(O)c1
REMARK SMILES IDX 5 1 4 2 6 3 7 4 8 5 9 6 13 7 11 8 10 9 12 11 2 13 1 14 3 15
REMARK H PARENT 10 10 12 12 3 16
ROOT
ATOM      1  C   UNL     1      -8.550   1.709 -31.935  1.00  0.00     0.016 C 
ATOM      2  C   UNL     1      -8.927   0.787 -32.835  1.00  0.00     0.094 C 
ENDROOT
BRANCH   1   3
ATOM      3  C   UNL     1      -7.185   1.833 -31.403  1.00  0.00    -0.021 A 
ATOM      4  C   UNL     1      -7.014   2.326 -30.097  1.00  0.00     0.012 A 
ATOM      5  C   UNL     1      -5.740   2.444 -29.531  1.00  0.00     0.051 A 
ATOM      6  C   UNL     1      -4.634   2.056 -30.272  1.00  0.00     0.157 A 
ATOM      7  C   UNL     1      -6.056   1.429 -32.128  1.00  0.00     0.058 A 
ATOM      8  C   UNL     1      -4.795   1.551 -31.559  1.00  0.00     0.157 A 
BRANCH   6   9
ATOM      9  O   UNL     1      -3.362   2.144 -29.778  1.00  0.00    -0.504 OA
ATOM     10  H   UNL     1      -3.278   1.513 -29.042  1.00  0.00     0.293 HD
ENDBRANCH   6   9
BRANCH   8  11
ATOM     11  O   UNL     1      -3.701   1.163 -32.280  1.00  0.00    -0.504 OA
ATOM     12  H   UNL     1      -3.417   1.973 -32.749  1.00  0.00     0.293 HD
ENDBRANCH   8  11
ENDBRANCH   1   3
BRANCH   2  13
ATOM     13  C   UNL     1     -10.325   0.775 -33.313  1.00  0.00     0.328 C 
ATOM     14  O   UNL     1     -10.854  -0.161 -33.886  1.00  0.00    -0.247 OA
BRANCH  13  15
ATOM     15  O   UNL     1     -10.963   1.931 -33.041  1.00  0.00    -0.478 OA
ATOM     16  H   UNL     1     -11.776   2.092 -33.552  1.00  0.00     0.297 HD
ENDBRANCH  13  15
ENDBRANCH   2  13
TORSDOF 5
ENDMDL
MODEL 3
REMARK VINA RESULT:      -6.2     15.973     19.678
REMARK SMILES O=C(O)/C=C/c1ccc(O)c(O)c1
REMARK SMILES IDX 5 1 4 2 6 3 7 4 8 5 9 6 13 7 11 8 10 9 12 11 2 13 1 14 3 15
REMARK H PARENT 10 10 12 12 3 16
ROOT
ATOM      1  C   UNL     1      -6.302   1.037 -31.795  1.00  0.00     0.016 C 
ATOM      2  C   UNL     1      -5.408   0.212 -31.228  1.00  0.00     0.094 C 
ENDROOT
BRANCH   1   3
ATOM      3  C   UNL     1      -7.691   0.667 -32.099  1.00  0.00    -0.021 A 
ATOM      4  C   UNL     1      -8.072  -0.681 -31.969  1.00  0.00     0.012 A 
ATOM      5  C   UNL     1      -9.386  -1.088 -32.223  1.00  0.00     0.051 A 
ATOM      6  C   UNL     1     -10.326  -0.138 -32.599  1.00  0.00     0.157 A 
ATOM      7  C   UNL     1      -8.659   1.612 -32.463  1.00  0.00     0.058 A 
ATOM      8  C   UNL     1      -9.961   1.200 -32.715  1.00  0.00     0.157 A 
BRANCH   6   9
ATOM      9  O   UNL     1     -11.627  -0.468 -32.861  1.00  0.00    -0.504 OA
ATOM     10  H   UNL     1     -11.630  -1.198 -33.505  1.00  0.00     0.293 HD
ENDBRANCH   6   9
BRANCH   8  11
ATOM     11  O   UNL     1     -10.894   2.131 -33.077  1.00  0.00    -0.504 OA
ATOM     12  H   UNL     1     -11.203   2.510 -32.230  1.00  0.00     0.293 HD
ENDBRANCH   8  11
ENDBRANCH   1   3
BRANCH   2  13
ATOM     13  C   UNL     1      -4.044   0.707 -30.951  1.00  0.00     0.328 C 
ATOM     14  O   UNL     1      -3.700   1.245 -29.913  1.00  0.00    -0.247 OA
BRANCH  13  15
ATOM     15  O   UNL     1      -3.208   0.495 -31.986  1.00  0.00    -0.478 OA
ATOM     16  H   UNL     1      -3.617   0.122 -32.787  1.00  0.00     0.297 HD
ENDBRANCH  13  15
ENDBRANCH   2  13
TORSDOF 5
ENDMDL
MODEL 4
REMARK VINA RESULT:      -6.2      2.044      2.993
REMARK SMILES O=C(O)/C=C/c1ccc(O)c(O)c1
REMARK SMILES IDX 5 1 4 2 6 3 7 4 8 5 9 6 13 7 11 8 10 9 12 11 2 13 1 14 3 15
REMARK H PARENT 10 10 12 12 3 16
ROOT
ATOM      1  C   UNL     1       7.745  -1.268 -19.094  1.00  0.00     0.016 C 
ATOM      2  C   UNL     1       6.483  -1.534 -19.464  1.00  0.00     0.094 C 
ENDROOT
BRANCH   1   3
ATOM      3  C   UNL     1       8.110  -0.452 -17.927  1.00  0.00    -0.021 A 
ATOM      4  C   UNL     1       9.191  -0.865 -17.129  1.00  0.00     0.012 A 
ATOM      5  C   UNL     1       9.596  -0.116 -16.019  1.00  0.00     0.051 A 
ATOM      6  C   UNL     1       8.923   1.059 -15.715  1.00  0.00     0.157 A 
ATOM      7  C   UNL     1       7.454   0.746 -17.614  1.00  0.00     0.058 A 
ATOM      8  C   UNL     1       7.862   1.484 -16.510  1.00  0.00     0.157 A 
BRANCH   6   9
ATOM      9  O   UNL     1       9.268   1.839 -14.646  1.00  0.00    -0.504 OA
ATOM     10  H   UNL     1      10.087   1.479 -14.262  1.00  0.00     0.293 HD
ENDBRANCH   6   9
BRANCH   8  11
ATOM     11  O   UNL     1       7.209   2.646 -16.210  1.00  0.00    -0.504 OA
ATOM     12  H   UNL     1       7.916   3.255 -15.915  1.00  0.00     0.293 HD
ENDBRANCH   8  11
ENDBRANCH   1   3
BRANCH   2  13
ATOM     13  C   UNL     1       6.241  -2.386 -20.646  1.00  0.00     0.328 C 
ATOM     14  O   UNL     1       5.622  -2.039 -21.636  1.00  0.00    -0.247 OA
BRANCH  13  15
ATOM     15  O   UNL     1       6.789  -3.609 -20.508  1.00  0.00    -0.478 OA
ATOM     16  H   UNL     1       6.646  -4.040 -19.646  1.00  0.00     0.297 HD
ENDBRANCH  13  15
ENDBRANCH   2  13
TORSDOF 5
ENDMDL
MODEL 5
REMARK VINA RESULT:      -6.1     15.702     18.505
REMARK SMILES O=C(O)/C=C/c1ccc(O)c(O)c1
REMARK SMILES IDX 5 1 4 2 6 3 7 4 8 5 9 6 13 7 11 8 10 9 12 11 2 13 1 14 3 15
REMARK H PARENT 10 10 12 12 3 16
ROOT
ATOM      1  C   UNL     1      -8.604   1.313 -31.580  1.00  0.00     0.016 C 
ATOM      2  C   UNL     1      -9.105   0.683 -32.655  1.00  0.00     0.094 C 
ENDROOT
BRANCH   1   3
ATOM      3  C   UNL     1      -7.183   1.302 -31.205  1.00  0.00    -0.021 A 
ATOM      4  C   UNL     1      -6.631   2.459 -30.627  1.00  0.00     0.012 A 
ATOM      5  C   UNL     1      -5.290   2.499 -30.230  1.00  0.00     0.051 A 
ATOM      6  C   UNL     1      -4.502   1.370 -30.403  1.00  0.00     0.157 A 
ATOM      7  C   UNL     1      -6.375   0.168 -31.355  1.00  0.00     0.058 A 
ATOM      8  C   UNL     1      -5.044   0.215 -30.959  1.00  0.00     0.157 A 
BRANCH   6   9
ATOM      9  O   UNL     1      -3.185   1.342 -30.036  1.00  0.00    -0.504 OA
ATOM     10  H   UNL     1      -3.137   1.453 -29.070  1.00  0.00     0.293 HD
ENDBRANCH   6   9
BRANCH   8  11
ATOM     11  O   UNL     1      -4.264  -0.895 -31.119  1.00  0.00    -0.504 OA
ATOM     12  H   UNL     1      -3.597  -0.830 -30.406  1.00  0.00     0.293 HD
ENDBRANCH   8  11
ENDBRANCH   1   3
BRANCH   2  13
ATOM     13  C   UNL     1     -10.551   0.785 -32.941  1.00  0.00     0.328 C 
ATOM     14  O   UNL     1     -11.306  -0.166 -33.038  1.00  0.00    -0.247 OA
BRANCH  13  15
ATOM     15  O   UNL     1     -10.950   2.063 -33.085  1.00  0.00    -0.478 OA
ATOM     16  H   UNL     1     -10.254   2.736 -32.975  1.00  0.00     0.297 HD
ENDBRANCH  13  15
ENDBRANCH   2  13
TORSDOF 5
ENDMDL
MODEL 6
REMARK VINA RESULT:      -6.0     15.750     18.557
REMARK SMILES O=C(O)/C=C/c1ccc(O)c(O)c1
REMARK SMILES IDX 5 1 4 2 6 3 7 4 8 5 9 6 13 7 11 8 10 9 12 11 2 13 1 14 3 15
REMARK H PARENT 10 10 12 12 3 16
ROOT
ATOM      1  C   UNL     1      -8.535   1.166 -31.624  1.00  0.00     0.016 C 
ATOM      2  C   UNL     1      -9.067   0.593 -32.715  1.00  0.00     0.094 C 
ENDROOT
BRANCH   1   3
ATOM      3  C   UNL     1      -7.106   1.122 -31.281  1.00  0.00    -0.021 A 
ATOM      4  C   UNL     1      -6.495  -0.132 -31.104  1.00  0.00     0.012 A 
ATOM      5  C   UNL     1      -5.134  -0.235 -30.799  1.00  0.00     0.051 A 
ATOM      6  C   UNL     1      -4.378   0.923 -30.683  1.00  0.00     0.157 A 
ATOM      7  C   UNL     1      -6.323   2.279 -31.177  1.00  0.00     0.058 A 
ATOM      8  C   UNL     1      -4.972   2.168 -30.874  1.00  0.00     0.157 A 
BRANCH   6   9
ATOM      9  O   UNL     1      -3.044   0.893 -30.388  1.00  0.00    -0.504 OA
ATOM     10  H   UNL     1      -2.784   1.776 -30.069  1.00  0.00     0.293 HD
ENDBRANCH   6   9
BRANCH   8  11
ATOM     11  O   UNL     1      -4.221   3.304 -30.766  1.00  0.00    -0.504 OA
ATOM     12  H   UNL     1      -4.855   3.990 -30.477  1.00  0.00     0.293 HD
ENDBRANCH   8  11
ENDBRANCH   1   3
BRANCH   2  13
ATOM     13  C   UNL     1     -10.517   0.724 -32.965  1.00  0.00     0.328 C 
ATOM     14  O   UNL     1     -11.282  -0.213 -33.108  1.00  0.00    -0.247 OA
BRANCH  13  15
ATOM     15  O   UNL     1     -10.907   2.012 -33.017  1.00  0.00    -0.478 OA
ATOM     16  H   UNL     1     -11.184   2.333 -33.894  1.00  0.00     0.297 HD
ENDBRANCH  13  15
ENDBRANCH   2  13
TORSDOF 5
ENDMDL
MODEL 7
REMARK VINA RESULT:      -6.0     15.446     19.050
REMARK SMILES O=C(O)/C=C/c1ccc(O)c(O)c1
REMARK SMILES IDX 5 1 4 2 6 3 7 4 8 5 9 6 13 7 11 8 10 9 12 11 2 13 1 14 3 15
REMARK H PARENT 10 10 12 12 3 16
ROOT
ATOM      1  C   UNL     1      -5.983  -0.152 -31.240  1.00  0.00     0.016 C 
ATOM      2  C   UNL     1      -4.814   0.500 -31.350  1.00  0.00     0.094 C 
ENDROOT
BRANCH   1   3
ATOM      3  C   UNL     1      -7.277   0.395 -31.671  1.00  0.00    -0.021 A 
ATOM      4  C   UNL     1      -7.305   1.267 -32.773  1.00  0.00     0.012 A 
ATOM      5  C   UNL     1      -8.511   1.800 -33.241  1.00  0.00     0.051 A 
ATOM      6  C   UNL     1      -9.695   1.449 -32.609  1.00  0.00     0.157 A 
ATOM      7  C   UNL     1      -8.485   0.039 -31.057  1.00  0.00     0.058 A 
ATOM      8  C   UNL     1      -9.678   0.573 -31.527  1.00  0.00     0.157 A 
BRANCH   6   9
ATOM      9  O   UNL     1     -10.907   1.933 -33.016  1.00  0.00    -0.504 OA
ATOM     10  H   UNL     1     -11.331   1.257 -33.575  1.00  0.00     0.293 HD
ENDBRANCH   6   9
BRANCH   8  11
ATOM     11  O   UNL     1     -10.848   0.225 -30.914  1.00  0.00    -0.504 OA
ATOM     12  H   UNL     1     -10.569  -0.227 -30.093  1.00  0.00     0.293 HD
ENDBRANCH   8  11
ENDBRANCH   1   3
BRANCH   2  13
ATOM     13  C   UNL     1      -3.573  -0.163 -30.901  1.00  0.00     0.328 C 
ATOM     14  O   UNL     1      -3.084  -0.039 -29.792  1.00  0.00    -0.247 OA
BRANCH  13  15
ATOM     15  O   UNL     1      -3.033  -0.933 -31.865  1.00  0.00    -0.478 OA
ATOM     16  H   UNL     1      -2.220  -1.409 -31.617  1.00  0.00     0.297 HD
ENDBRANCH  13  15
ENDBRANCH   2  13
TORSDOF 5
ENDMDL
MODEL 8
REMARK VINA RESULT:      -5.9     13.023     14.225
REMARK SMILES O=C(O)/C=C/c1ccc(O)c(O)c1
REMARK SMILES IDX 5 1 4 2 6 3 7 4 8 5 9 6 13 7 11 8 10 9 12 11 2 13 1 14 3 15
REMARK H PARENT 10 10 12 12 3 16
ROOT
ATOM      1  C   UNL     1      -5.230  -1.199 -26.113  1.00  0.00     0.016 C 
ATOM      2  C   UNL     1      -5.695  -0.331 -25.200  1.00  0.00     0.094 C 
ENDROOT
BRANCH   1   3
ATOM      3  C   UNL     1      -4.334  -0.834 -27.220  1.00  0.00    -0.021 A 
ATOM      4  C   UNL     1      -3.463   0.256 -27.048  1.00  0.00     0.012 A 
ATOM      5  C   UNL     1      -2.573   0.635 -28.059  1.00  0.00     0.051 A 
ATOM      6  C   UNL     1      -2.549  -0.088 -29.243  1.00  0.00     0.157 A 
ATOM      7  C   UNL     1      -4.282  -1.562 -28.415  1.00  0.00     0.058 A 
ATOM      8  C   UNL     1      -3.396  -1.179 -29.414  1.00  0.00     0.157 A 
BRANCH   6   9
ATOM      9  O   UNL     1      -1.703   0.228 -30.270  1.00  0.00    -0.504 OA
ATOM     10  H   UNL     1      -1.040  -0.481 -30.345  1.00  0.00     0.293 HD
ENDBRANCH   6   9
BRANCH   8  11
ATOM     11  O   UNL     1      -3.361  -1.892 -30.579  1.00  0.00    -0.504 OA
ATOM     12  H   UNL     1      -2.409  -1.973 -30.788  1.00  0.00     0.293 HD
ENDBRANCH   8  11
ENDBRANCH   1   3
BRANCH   2  13
ATOM     13  C   UNL     1      -6.573  -0.822 -24.119  1.00  0.00     0.328 C 
ATOM     14  O   UNL     1      -7.404  -0.145 -23.540  1.00  0.00    -0.247 OA
BRANCH  13  15
ATOM     15  O   UNL     1      -6.352  -2.121 -23.837  1.00  0.00    -0.478 OA
ATOM     16  H   UNL     1      -7.093  -2.724 -24.026  1.00  0.00     0.297 HD
ENDBRANCH  13  15
ENDBRANCH   2  13
TORSDOF 5
ENDMDL
MODEL 9
REMARK VINA RESULT:      -5.8     13.139     14.748
REMARK SMILES O=C(O)/C=C/c1ccc(O)c(O)c1
REMARK SMILES IDX 5 1 4 2 6 3 7 4 8 5 9 6 13 7 11 8 10 9 12 11 2 13 1 14 3 15
REMARK H PARENT 10 10 12 12 3 16
ROOT
ATOM      1  C   UNL     1      -4.459  -0.017 -26.531  1.00  0.00     0.016 C 
ATOM      2  C   UNL     1      -5.179  -0.893 -25.812  1.00  0.00     0.094 C 
ENDROOT
BRANCH   1   3
ATOM      3  C   UNL     1      -4.061  -0.227 -27.930  1.00  0.00    -0.021 A 
ATOM      4  C   UNL     1      -3.697  -1.522 -28.339  1.00  0.00     0.012 A 
ATOM      5  C   UNL     1      -3.331  -1.785 -29.663  1.00  0.00     0.051 A 
ATOM      6  C   UNL     1      -3.339  -0.748 -30.585  1.00  0.00     0.157 A 
ATOM      7  C   UNL     1      -4.080   0.803 -28.880  1.00  0.00     0.058 A 
ATOM      8  C   UNL     1      -3.713   0.534 -30.192  1.00  0.00     0.157 A 
BRANCH   6   9
ATOM      9  O   UNL     1      -2.993  -0.937 -31.894  1.00  0.00    -0.504 OA
ATOM     10  H   UNL     1      -3.343  -1.800 -32.178  1.00  0.00     0.293 HD
ENDBRANCH   6   9
BRANCH   8  11
ATOM     11  O   UNL     1      -3.727   1.549 -31.107  1.00  0.00    -0.504 OA
ATOM     12  H   UNL     1      -3.366   2.319 -30.623  1.00  0.00     0.293 HD
ENDBRANCH   8  11
ENDBRANCH   1   3
BRANCH   2  13
ATOM     13  C   UNL     1      -5.538  -0.560 -24.419  1.00  0.00     0.328 C 
ATOM     14  O   UNL     1      -6.233  -1.253 -23.698  1.00  0.00    -0.247 OA
BRANCH  13  15
ATOM     15  O   UNL     1      -5.004   0.612 -24.024  1.00  0.00    -0.478 OA
ATOM     16  H   UNL     1      -4.044   0.602 -23.856  1.00  0.00     0.297 HD
ENDBRANCH  13  15
ENDBRANCH   2  13
TORSDOF 5
ENDMDL
MODEL 10
REMARK VINA RESULT:      -5.8      2.188      3.083
REMARK SMILES O=C(O)/C=C/c1ccc(O)c(O)c1
REMARK SMILES IDX 5 1 4 2 6 3 7 4 8 5 9 6 13 7 11 8 10 9 12 11 2 13 1 14 3 15
REMARK H PARENT 10 10 12 12 3 16
ROOT
ATOM      1  C   UNL     1       7.832  -1.191 -19.089  1.00  0.00     0.016 C 
ATOM      2  C   UNL     1       6.610  -1.719 -19.260  1.00  0.00     0.094 C 
ENDROOT
BRANCH   1   3
ATOM      3  C   UNL     1       8.242  -0.426 -17.903  1.00  0.00    -0.021 A 
ATOM      4  C   UNL     1       7.466   0.681 -17.515  1.00  0.00     0.012 A 
ATOM      5  C   UNL     1       7.796   1.432 -16.382  1.00  0.00     0.051 A 
ATOM      6  C   UNL     1       8.902   1.067 -15.628  1.00  0.00     0.157 A 
ATOM      7  C   UNL     1       9.345  -0.789 -17.119  1.00  0.00     0.058 A 
ATOM      8  C   UNL     1       9.666  -0.037 -15.996  1.00  0.00     0.157 A 
BRANCH   6   9
ATOM      9  O   UNL     1       9.278   1.758 -14.510  1.00  0.00    -0.504 OA
ATOM     10  H   UNL     1      10.243   1.669 -14.410  1.00  0.00     0.293 HD
ENDBRANCH   6   9
BRANCH   8  11
ATOM     11  O   UNL     1      10.749  -0.396 -15.244  1.00  0.00    -0.504 OA
ATOM     12  H   UNL     1      10.634  -1.355 -15.093  1.00  0.00     0.293 HD
ENDBRANCH   8  11
ENDBRANCH   1   3
BRANCH   2  13
ATOM     13  C   UNL     1       6.322  -2.489 -20.488  1.00  0.00     0.328 C 
ATOM     14  O   UNL     1       6.638  -3.652 -20.666  1.00  0.00    -0.247 OA
BRANCH  13  15
ATOM     15  O   UNL     1       5.662  -1.754 -21.404  1.00  0.00    -0.478 OA
ATOM     16  H   UNL     1       4.941  -1.198 -21.056  1.00  0.00     0.297 HD
ENDBRANCH  13  15
ENDBRANCH   2  13
TORSDOF 5
ENDMDL
