MODEL 1
REMARK VINA RESULT:      -5.3      0.000      0.000
REMARK SMILES C=CCSC[C@H](N)C(=O)O
REMARK SMILES IDX 5 1 4 2 3 3 2 4 1 5 6 6 8 7 9 8 10 9 7 11
REMARK H PARENT 10 10 7 12 7 13
ROOT
ATOM      1  C   UNL     1       0.301 -10.619 -26.628  1.00  0.00     0.100 C 
ENDROOT
BRANCH   1   2
ATOM      2  S   UNL     1      -1.011  -9.345 -26.656  1.00  0.00    -0.156 SA
BRANCH   2   3
ATOM      3  C   UNL     1      -2.049 -10.062 -27.964  1.00  0.00     0.096 C 
BRANCH   3   4
ATOM      4  C   UNL     1      -3.302  -9.251 -28.086  1.00  0.00    -0.024 C 
ATOM      5  C   UNL     1      -4.331  -9.313 -27.230  1.00  0.00     0.005 C 
ENDBRANCH   3   4
ENDBRANCH   2   3
ENDBRANCH   1   2
BRANCH   1   6
ATOM      6  C   UNL     1       0.492 -11.197 -25.219  1.00  0.00     0.172 C 
BRANCH   6   7
ATOM      7  C   UNL     1       0.825 -12.691 -25.323  1.00  0.00     0.321 C 
ATOM      8  O   UNL     1       1.266 -13.250 -26.314  1.00  0.00    -0.251 OA
BRANCH   7   9
ATOM      9  O   UNL     1       0.549 -13.336 -24.159  1.00  0.00    -0.480 OA
ATOM     10  H   UNL     1       1.343 -13.198 -23.581  1.00  0.00     0.296 HD
ENDBRANCH   7   9
ENDBRANCH   6   7
BRANCH   6  11
ATOM     11  N   UNL     1       1.583 -10.528 -24.434  1.00  0.00    -0.318 NA
ATOM     12  H   UNL     1       1.471 -10.856 -23.466  1.00  0.00     0.119 HD
ATOM     13  H   UNL     1       1.345  -9.532 -24.355  1.00  0.00     0.119 HD
ENDBRANCH   6  11
ENDBRANCH   1   6
TORSDOF 7
ENDMDL
MODEL 2
REMARK VINA RESULT:      -5.1      1.866      2.300
REMARK SMILES C=CCSC[C@H](N)C(=O)O
REMARK SMILES IDX 5 1 4 2 3 3 2 4 1 5 6 6 8 7 9 8 10 9 7 11
REMARK H PARENT 10 10 7 12 7 13
ROOT
ATOM      1  C   UNL     1      -1.546 -10.190 -27.281  1.00  0.00     0.100 C 
ENDROOT
BRANCH   1   2
ATOM      2  S   UNL     1      -2.801  -8.861 -27.271  1.00  0.00    -0.156 SA
BRANCH   2   3
ATOM      3  C   UNL     1      -4.229  -9.840 -27.824  1.00  0.00     0.096 C 
BRANCH   3   4
ATOM      4  C   UNL     1      -5.300  -9.764 -26.780  1.00  0.00    -0.024 C 
ATOM      5  C   UNL     1      -5.735 -10.810 -26.064  1.00  0.00     0.005 C 
ENDBRANCH   3   4
ENDBRANCH   2   3
ENDBRANCH   1   2
BRANCH   1   6
ATOM      6  C   UNL     1      -0.284  -9.776 -26.512  1.00  0.00     0.172 C 
BRANCH   6   7
ATOM      7  C   UNL     1       0.406 -11.029 -25.956  1.00  0.00     0.321 C 
ATOM      8  O   UNL     1       0.340 -12.148 -26.439  1.00  0.00    -0.251 OA
BRANCH   7   9
ATOM      9  O   UNL     1       1.103 -10.742 -24.824  1.00  0.00    -0.480 OA
ATOM     10  H   UNL     1       0.901  -9.792 -24.618  1.00  0.00     0.296 HD
ENDBRANCH   7   9
ENDBRANCH   6   7
BRANCH   6  11
ATOM     11  N   UNL     1       0.714  -9.025 -27.346  1.00  0.00    -0.318 NA
ATOM     12  H   UNL     1       0.386  -8.051 -27.361  1.00  0.00     0.119 HD
ATOM     13  H   UNL     1       0.583  -9.314 -28.323  1.00  0.00     0.119 HD
ENDBRANCH   6  11
ENDBRANCH   1   6
TORSDOF 7
ENDMDL
MODEL 3
REMARK VINA RESULT:      -4.8      4.366      5.670
REMARK SMILES C=CCSC[C@H](N)C(=O)O
REMARK SMILES IDX 5 1 4 2 3 3 2 4 1 5 6 6 8 7 9 8 10 9 7 11
REMARK H PARENT 10 10 7 12 7 13
ROOT
ATOM      1  C   UNL     1      -3.737 -10.424 -27.051  1.00  0.00     0.100 C 
ENDROOT
BRANCH   1   2
ATOM      2  S   UNL     1      -2.870  -9.232 -28.134  1.00  0.00    -0.156 SA
BRANCH   2   3
ATOM      3  C   UNL     1      -1.441  -8.892 -27.064  1.00  0.00     0.096 C 
BRANCH   3   4
ATOM      4  C   UNL     1      -1.100 -10.136 -26.303  1.00  0.00    -0.024 C 
ATOM      5  C   UNL     1       0.118 -10.420 -25.823  1.00  0.00     0.005 C 
ENDBRANCH   3   4
ENDBRANCH   2   3
ENDBRANCH   1   2
BRANCH   1   6
ATOM      6  C   UNL     1      -5.261 -10.281 -27.166  1.00  0.00     0.172 C 
BRANCH   6   7
ATOM      7  C   UNL     1      -5.938 -11.335 -26.281  1.00  0.00     0.321 C 
ATOM      8  O   UNL     1      -5.975 -11.317 -25.061  1.00  0.00    -0.251 OA
BRANCH   7   9
ATOM      9  O   UNL     1      -6.492 -12.323 -27.033  1.00  0.00    -0.480 OA
ATOM     10  H   UNL     1      -5.769 -12.640 -27.634  1.00  0.00     0.296 HD
ENDBRANCH   7   9
ENDBRANCH   6   7
BRANCH   6  11
ATOM     11  N   UNL     1      -5.774  -8.930 -26.760  1.00  0.00    -0.318 NA
ATOM     12  H   UNL     1      -5.153  -8.248 -27.215  1.00  0.00     0.119 HD
ATOM     13  H   UNL     1      -5.549  -8.798 -25.766  1.00  0.00     0.119 HD
ENDBRANCH   6  11
ENDBRANCH   1   6
TORSDOF 7
ENDMDL
MODEL 4
REMARK VINA RESULT:      -4.6     11.595     12.577
REMARK SMILES C=CCSC[C@H](N)C(=O)O
REMARK SMILES IDX 5 1 4 2 3 3 2 4 1 5 6 6 8 7 9 8 10 9 7 11
REMARK H PARENT 10 10 7 12 7 13
ROOT
ATOM      1  C   UNL     1       5.236  -1.373 -24.182  1.00  0.00     0.100 C 
ENDROOT
BRANCH   1   2
ATOM      2  S   UNL     1       4.143  -2.415 -23.150  1.00  0.00    -0.156 SA
BRANCH   2   3
ATOM      3  C   UNL     1       5.360  -2.918 -21.898  1.00  0.00     0.096 C 
BRANCH   3   4
ATOM      4  C   UNL     1       5.885  -1.693 -21.215  1.00  0.00    -0.024 C 
ATOM      5  C   UNL     1       6.463  -1.688 -20.006  1.00  0.00     0.005 C 
ENDBRANCH   3   4
ENDBRANCH   2   3
ENDBRANCH   1   2
BRANCH   1   6
ATOM      6  C   UNL     1       4.470  -0.749 -25.357  1.00  0.00     0.172 C 
BRANCH   6   7
ATOM      7  C   UNL     1       5.451   0.018 -26.252  1.00  0.00     0.321 C 
ATOM      8  O   UNL     1       6.285   0.821 -25.865  1.00  0.00    -0.251 OA
BRANCH   7   9
ATOM      9  O   UNL     1       5.266  -0.296 -27.562  1.00  0.00    -0.480 OA
ATOM     10  H   UNL     1       4.745  -1.140 -27.565  1.00  0.00     0.296 HD
ENDBRANCH   7   9
ENDBRANCH   6   7
BRANCH   6  11
ATOM     11  N   UNL     1       3.747  -1.752 -26.208  1.00  0.00    -0.318 NA
ATOM     12  H   UNL     1       2.747  -1.620 -26.006  1.00  0.00     0.119 HD
ATOM     13  H   UNL     1       3.926  -2.683 -25.813  1.00  0.00     0.119 HD
ENDBRANCH   6  11
ENDBRANCH   1   6
TORSDOF 7
ENDMDL
MODEL 5
REMARK VINA RESULT:      -4.5      3.824      5.378
REMARK SMILES C=CCSC[C@H](N)C(=O)O
REMARK SMILES IDX 5 1 4 2 3 3 2 4 1 5 6 6 8 7 9 8 10 9 7 11
REMARK H PARENT 10 10 7 12 7 13
ROOT
ATOM      1  C   UNL     1      -1.953  -9.775 -26.475  1.00  0.00     0.100 C 
ENDROOT
BRANCH   1   2
ATOM      2  S   UNL     1      -0.225  -9.802 -27.073  1.00  0.00    -0.156 SA
BRANCH   2   3
ATOM      3  C   UNL     1       0.545 -10.582 -25.623  1.00  0.00     0.096 C 
BRANCH   3   4
ATOM      4  C   UNL     1       0.573 -12.065 -25.831  1.00  0.00    -0.024 C 
ATOM      5  C   UNL     1       0.834 -12.960 -24.868  1.00  0.00     0.005 C 
ENDBRANCH   3   4
ENDBRANCH   2   3
ENDBRANCH   1   2
BRANCH   1   6
ATOM      6  C   UNL     1      -2.947 -10.011 -27.621  1.00  0.00     0.172 C 
BRANCH   6   7
ATOM      7  C   UNL     1      -4.368 -10.100 -27.051  1.00  0.00     0.321 C 
ATOM      8  O   UNL     1      -5.017 -11.127 -26.924  1.00  0.00    -0.251 OA
BRANCH   7   9
ATOM      9  O   UNL     1      -4.838  -8.871 -26.711  1.00  0.00    -0.480 OA
ATOM     10  H   UNL     1      -4.036  -8.296 -26.610  1.00  0.00     0.296 HD
ENDBRANCH   7   9
ENDBRANCH   6   7
BRANCH   6  11
ATOM     11  N   UNL     1      -2.931  -8.933 -28.667  1.00  0.00    -0.318 NA
ATOM     12  H   UNL     1      -3.917  -8.724 -28.866  1.00  0.00     0.119 HD
ATOM     13  H   UNL     1      -2.617  -9.359 -29.548  1.00  0.00     0.119 HD
ENDBRANCH   6  11
ENDBRANCH   1   6
TORSDOF 7
ENDMDL
MODEL 6
REMARK VINA RESULT:      -4.5     15.188     16.008
REMARK SMILES C=CCSC[C@H](N)C(=O)O
REMARK SMILES IDX 5 1 4 2 3 3 2 4 1 5 6 6 8 7 9 8 10 9 7 11
REMARK H PARENT 10 10 7 12 7 13
ROOT
ATOM      1  C   UNL     1      -9.216  -1.179 -31.847  1.00  0.00     0.100 C 
ENDROOT
BRANCH   1   2
ATOM      2  S   UNL     1      -7.537  -1.076 -31.131  1.00  0.00    -0.156 SA
BRANCH   2   3
ATOM      3  C   UNL     1      -7.364   0.734 -31.121  1.00  0.00     0.096 C 
BRANCH   3   4
ATOM      4  C   UNL     1      -6.576   1.150 -32.325  1.00  0.00    -0.024 C 
ATOM      5  C   UNL     1      -7.106   1.382 -33.534  1.00  0.00     0.005 C 
ENDBRANCH   3   4
ENDBRANCH   2   3
ENDBRANCH   1   2
BRANCH   1   6
ATOM      6  C   UNL     1      -9.991   0.132 -31.652  1.00  0.00     0.172 C 
BRANCH   6   7
ATOM      7  C   UNL     1     -10.614   0.558 -32.987  1.00  0.00     0.321 C 
ATOM      8  O   UNL     1     -10.796  -0.172 -33.948  1.00  0.00    -0.251 OA
BRANCH   7   9
ATOM      9  O   UNL     1     -10.933   1.879 -32.979  1.00  0.00    -0.480 OA
ATOM     10  H   UNL     1     -11.924   1.916 -32.994  1.00  0.00     0.296 HD
ENDBRANCH   7   9
ENDBRANCH   6   7
BRANCH   6  11
ATOM     11  N   UNL     1     -11.089   0.039 -30.632  1.00  0.00    -0.318 NA
ATOM     12  H   UNL     1     -10.838   0.706 -29.891  1.00  0.00     0.119 HD
ATOM     13  H   UNL     1     -10.993  -0.864 -30.152  1.00  0.00     0.119 HD
ENDBRANCH   6  11
ENDBRANCH   1   6
TORSDOF 7
ENDMDL
MODEL 7
REMARK VINA RESULT:      -4.4     15.969     16.807
REMARK SMILES C=CCSC[C@H](N)C(=O)O
REMARK SMILES IDX 5 1 4 2 3 3 2 4 1 5 6 6 8 7 9 8 10 9 7 11
REMARK H PARENT 10 10 7 12 7 13
ROOT
ATOM      1  C   UNL     1       8.492  -0.846 -16.755  1.00  0.00     0.100 C 
ENDROOT
BRANCH   1   2
ATOM      2  S   UNL     1       8.205  -0.506 -18.529  1.00  0.00    -0.156 SA
BRANCH   2   3
ATOM      3  C   UNL     1       6.568  -1.279 -18.686  1.00  0.00     0.096 C 
BRANCH   3   4
ATOM      4  C   UNL     1       6.387  -1.745 -20.098  1.00  0.00    -0.024 C 
ATOM      5  C   UNL     1       6.564  -3.008 -20.507  1.00  0.00     0.005 C 
ENDBRANCH   3   4
ENDBRANCH   2   3
ENDBRANCH   1   2
BRANCH   1   6
ATOM      6  C   UNL     1       8.698   0.452 -15.962  1.00  0.00     0.172 C 
BRANCH   6   7
ATOM      7  C   UNL     1      10.181   0.843 -16.003  1.00  0.00     0.321 C 
ATOM      8  O   UNL     1      11.120   0.063 -15.980  1.00  0.00    -0.251 OA
BRANCH   7   9
ATOM      9  O   UNL     1      10.330   2.193 -16.054  1.00  0.00    -0.480 OA
ATOM     10  H   UNL     1      10.811   2.441 -15.222  1.00  0.00     0.296 HD
ENDBRANCH   7   9
ENDBRANCH   6   7
BRANCH   6  11
ATOM     11  N   UNL     1       7.895   1.611 -16.479  1.00  0.00    -0.318 NA
ATOM     12  H   UNL     1       7.673   1.382 -17.456  1.00  0.00     0.119 HD
ATOM     13  H   UNL     1       8.533   2.409 -16.583  1.00  0.00     0.119 HD
ENDBRANCH   6  11
ENDBRANCH   1   6
TORSDOF 7
ENDMDL
MODEL 8
REMARK VINA RESULT:      -4.4      2.886      3.684
REMARK SMILES C=CCSC[C@H](N)C(=O)O
REMARK SMILES IDX 5 1 4 2 3 3 2 4 1 5 6 6 8 7 9 8 10 9 7 11
REMARK H PARENT 10 10 7 12 7 13
ROOT
ATOM      1  C   UNL     1      -2.289  -9.423 -26.905  1.00  0.00     0.100 C 
ENDROOT
BRANCH   1   2
ATOM      2  S   UNL     1      -3.789  -9.414 -27.950  1.00  0.00    -0.156 SA
BRANCH   2   3
ATOM      3  C   UNL     1      -5.031  -9.569 -26.632  1.00  0.00     0.096 C 
BRANCH   3   4
ATOM      4  C   UNL     1      -5.612 -10.949 -26.675  1.00  0.00    -0.024 C 
ATOM      5  C   UNL     1      -6.147 -11.579 -25.621  1.00  0.00     0.005 C 
ENDBRANCH   3   4
ENDBRANCH   2   3
ENDBRANCH   1   2
BRANCH   1   6
ATOM      6  C   UNL     1      -1.082  -9.994 -27.662  1.00  0.00     0.172 C 
BRANCH   6   7
ATOM      7  C   UNL     1       0.208  -9.608 -26.928  1.00  0.00     0.321 C 
ATOM      8  O   UNL     1       0.703 -10.221 -25.995  1.00  0.00    -0.251 OA
BRANCH   7   9
ATOM      9  O   UNL     1       0.740  -8.466 -27.439  1.00  0.00    -0.480 OA
ATOM     10  H   UNL     1       0.250  -7.723 -27.000  1.00  0.00     0.296 HD
ENDBRANCH   7   9
ENDBRANCH   6   7
BRANCH   6  11
ATOM     11  N   UNL     1      -1.109 -11.489 -27.804  1.00  0.00    -0.318 NA
ATOM     12  H   UNL     1      -1.830 -11.818 -27.149  1.00  0.00     0.119 HD
ATOM     13  H   UNL     1      -0.248 -11.857 -27.382  1.00  0.00     0.119 HD
ENDBRANCH   6  11
ENDBRANCH   1   6
TORSDOF 7
ENDMDL
MODEL 9
REMARK VINA RESULT:      -4.3     15.387     16.210
REMARK SMILES C=CCSC[C@H](N)C(=O)O
REMARK SMILES IDX 5 1 4 2 3 3 2 4 1 5 6 6 8 7 9 8 10 9 7 11
REMARK H PARENT 10 10 7 12 7 13
ROOT
ATOM      1  C   UNL     1       7.617  -0.461 -17.248  1.00  0.00     0.100 C 
ENDROOT
BRANCH   1   2
ATOM      2  S   UNL     1       7.906  -0.903 -18.999  1.00  0.00    -0.156 SA
BRANCH   2   3
ATOM      3  C   UNL     1       6.330  -1.750 -19.322  1.00  0.00     0.096 C 
BRANCH   3   4
ATOM      4  C   UNL     1       6.426  -2.464 -20.635  1.00  0.00    -0.024 C 
ATOM      5  C   UNL     1       5.573  -2.294 -21.654  1.00  0.00     0.005 C 
ENDBRANCH   3   4
ENDBRANCH   2   3
ENDBRANCH   1   2
BRANCH   1   6
ATOM      6  C   UNL     1       8.923  -0.479 -16.442  1.00  0.00     0.172 C 
BRANCH   6   7
ATOM      7  C   UNL     1       9.060   0.836 -15.665  1.00  0.00     0.321 C 
ATOM      8  O   UNL     1       9.808   1.026 -14.720  1.00  0.00    -0.251 OA
BRANCH   7   9
ATOM      9  O   UNL     1       8.215   1.783 -16.154  1.00  0.00    -0.480 OA
ATOM     10  H   UNL     1       7.321   1.355 -16.185  1.00  0.00     0.296 HD
ENDBRANCH   7   9
ENDBRANCH   6   7
BRANCH   6  11
ATOM     11  N   UNL     1       9.013  -1.613 -15.461  1.00  0.00    -0.318 NA
ATOM     12  H   UNL     1       8.044  -1.913 -15.293  1.00  0.00     0.119 HD
ATOM     13  H   UNL     1       9.278  -1.216 -14.551  1.00  0.00     0.119 HD
ENDBRANCH   6  11
ENDBRANCH   1   6
TORSDOF 7
ENDMDL
MODEL 10
REMARK VINA RESULT:      -4.3     12.606     13.772
REMARK SMILES C=CCSC[C@H](N)C(=O)O
REMARK SMILES IDX 5 1 4 2 3 3 2 4 1 5 6 6 8 7 9 8 10 9 7 11
REMARK H PARENT 10 10 7 12 7 13
ROOT
ATOM      1  C   UNL     1      -5.693   0.288 -31.151  1.00  0.00     0.100 C 
ENDROOT
BRANCH   1   2
ATOM      2  S   UNL     1      -6.787   1.354 -32.157  1.00  0.00    -0.156 SA
BRANCH   2   3
ATOM      3  C   UNL     1      -8.031   0.108 -32.607  1.00  0.00     0.096 C 
BRANCH   3   4
ATOM      4  C   UNL     1      -9.101   0.765 -33.423  1.00  0.00    -0.024 C 
ATOM      5  C   UNL     1     -10.263   0.187 -33.756  1.00  0.00     0.005 C 
ENDBRANCH   3   4
ENDBRANCH   2   3
ENDBRANCH   1   2
BRANCH   1   6
ATOM      6  C   UNL     1      -4.253   0.819 -31.135  1.00  0.00     0.172 C 
BRANCH   6   7
ATOM      7  C   UNL     1      -3.291  -0.332 -30.815  1.00  0.00     0.321 C 
ATOM      8  O   UNL     1      -3.008  -0.728 -29.696  1.00  0.00    -0.251 OA
BRANCH   7   9
ATOM      9  O   UNL     1      -2.764  -0.859 -31.952  1.00  0.00    -0.480 OA
ATOM     10  H   UNL     1      -2.935  -1.835 -31.899  1.00  0.00     0.296 HD
ENDBRANCH   7   9
ENDBRANCH   6   7
BRANCH   6  11
ATOM     11  N   UNL     1      -3.824   1.441 -32.433  1.00  0.00    -0.318 NA
ATOM     12  H   UNL     1      -4.374   0.970 -33.162  1.00  0.00     0.119 HD
ATOM     13  H   UNL     1      -2.871   1.113 -32.634  1.00  0.00     0.119 HD
ENDBRANCH   6  11
ENDBRANCH   1   6
TORSDOF 7
ENDMDL
