MODEL 1
REMARK VINA RESULT:      -6.9      0.000      0.000
REMARK SMILES O=C(O)/C=C/c1ccc(O)cc1
REMARK SMILES IDX 5 1 4 2 6 3 7 4 8 5 9 6 12 7 11 8 10 9 2 11 1 12 3 13
REMARK H PARENT 10 10 3 14
ROOT
ATOM      1  C   UNL     1       6.039  -2.351 -20.244  1.00  0.00     0.015 C 
ATOM      2  C   UNL     1       5.655  -1.636 -21.313  1.00  0.00     0.094 C 
ENDROOT
BRANCH   1   3
ATOM      3  C   UNL     1       6.603  -1.755 -19.027  1.00  0.00    -0.025 A 
ATOM      4  C   UNL     1       6.086  -2.028 -17.752  1.00  0.00     0.012 A 
ATOM      5  C   UNL     1       6.632  -1.420 -16.617  1.00  0.00     0.047 A 
ATOM      6  C   UNL     1       7.692  -0.531 -16.760  1.00  0.00     0.115 A 
ATOM      7  C   UNL     1       7.659  -0.843 -19.149  1.00  0.00     0.012 A 
ATOM      8  C   UNL     1       8.206  -0.237 -18.016  1.00  0.00     0.047 A 
BRANCH   6   9
ATOM      9  O   UNL     1       8.254   0.085 -15.683  1.00  0.00    -0.508 OA
ATOM     10  H   UNL     1       7.956   1.010 -15.661  1.00  0.00     0.293 HD
ENDBRANCH   6   9
ENDBRANCH   1   3
BRANCH   2  11
ATOM     11  C   UNL     1       5.084  -2.336 -22.481  1.00  0.00     0.328 C 
ATOM     12  O   UNL     1       4.416  -3.353 -22.423  1.00  0.00    -0.247 OA
BRANCH  11  13
ATOM     13  O   UNL     1       5.387  -1.717 -23.639  1.00  0.00    -0.478 OA
ATOM     14  H   UNL     1       4.643  -1.583 -24.252  1.00  0.00     0.297 HD
ENDBRANCH  11  13
ENDBRANCH   2  11
TORSDOF 4
ENDMDL
MODEL 2
REMARK VINA RESULT:      -6.0     13.019     13.958
REMARK SMILES O=C(O)/C=C/c1ccc(O)cc1
REMARK SMILES IDX 5 1 4 2 6 3 7 4 8 5 9 6 12 7 11 8 10 9 2 11 1 12 3 13
REMARK H PARENT 10 10 3 14
ROOT
ATOM      1  C   UNL     1      -5.279  -1.118 -26.021  1.00  0.00     0.015 C 
ATOM      2  C   UNL     1      -5.578  -0.387 -24.935  1.00  0.00     0.094 C 
ENDROOT
BRANCH   1   3
ATOM      3  C   UNL     1      -4.262  -0.730 -27.006  1.00  0.00    -0.025 A 
ATOM      4  C   UNL     1      -3.543   0.471 -26.904  1.00  0.00     0.012 A 
ATOM      5  C   UNL     1      -2.601   0.821 -27.876  1.00  0.00     0.047 A 
ATOM      6  C   UNL     1      -2.382  -0.029 -28.955  1.00  0.00     0.115 A 
ATOM      7  C   UNL     1      -4.038  -1.562 -28.110  1.00  0.00     0.012 A 
ATOM      8  C   UNL     1      -3.095  -1.215 -29.079  1.00  0.00     0.047 A 
BRANCH   6   9
ATOM      9  O   UNL     1      -1.474   0.272 -29.925  1.00  0.00    -0.508 OA
ATOM     10  H   UNL     1      -1.524   1.223 -30.116  1.00  0.00     0.293 HD
ENDBRANCH   6   9
ENDBRANCH   1   3
BRANCH   2  11
ATOM     11  C   UNL     1      -6.608  -0.878 -23.999  1.00  0.00     0.328 C 
ATOM     12  O   UNL     1      -7.494  -0.192 -23.519  1.00  0.00    -0.247 OA
BRANCH  11  13
ATOM     13  O   UNL     1      -6.461  -2.189 -23.726  1.00  0.00    -0.478 OA
ATOM     14  H   UNL     1      -5.679  -2.615 -24.120  1.00  0.00     0.297 HD
ENDBRANCH  11  13
ENDBRANCH   2  11
TORSDOF 4
ENDMDL
MODEL 3
REMARK VINA RESULT:      -6.0      1.770      2.377
REMARK SMILES O=C(O)/C=C/c1ccc(O)cc1
REMARK SMILES IDX 5 1 4 2 6 3 7 4 8 5 9 6 12 7 11 8 10 9 2 11 1 12 3 13
REMARK H PARENT 10 10 3 14
ROOT
ATOM      1  C   UNL     1       5.811  -1.750 -22.205  1.00  0.00     0.015 C 
ATOM      2  C   UNL     1       4.666  -2.041 -22.844  1.00  0.00     0.094 C 
ENDROOT
BRANCH   1   3
ATOM      3  C   UNL     1       6.044  -2.035 -20.785  1.00  0.00    -0.025 A 
ATOM      4  C   UNL     1       5.830  -3.308 -20.234  1.00  0.00     0.012 A 
ATOM      5  C   UNL     1       6.036  -3.537 -18.870  1.00  0.00     0.047 A 
ATOM      6  C   UNL     1       6.450  -2.488 -18.055  1.00  0.00     0.115 A 
ATOM      7  C   UNL     1       6.443  -0.991 -19.942  1.00  0.00     0.012 A 
ATOM      8  C   UNL     1       6.652  -1.219 -18.580  1.00  0.00     0.047 A 
BRANCH   6   9
ATOM      9  O   UNL     1       6.663  -2.665 -16.721  1.00  0.00    -0.508 OA
ATOM     10  H   UNL     1       5.940  -3.204 -16.358  1.00  0.00     0.293 HD
ENDBRANCH   6   9
ENDBRANCH   1   3
BRANCH   2  11
ATOM     11  C   UNL     1       4.542  -1.726 -24.280  1.00  0.00     0.328 C 
ATOM     12  O   UNL     1       3.547  -1.933 -24.954  1.00  0.00    -0.247 OA
BRANCH  11  13
ATOM     13  O   UNL     1       5.667  -1.174 -24.776  1.00  0.00    -0.478 OA
ATOM     14  H   UNL     1       5.714  -0.203 -24.734  1.00  0.00     0.297 HD
ENDBRANCH  11  13
ENDBRANCH   2  11
TORSDOF 4
ENDMDL
MODEL 4
REMARK VINA RESULT:      -6.0     13.041     13.981
REMARK SMILES O=C(O)/C=C/c1ccc(O)cc1
REMARK SMILES IDX 5 1 4 2 6 3 7 4 8 5 9 6 12 7 11 8 10 9 2 11 1 12 3 13
REMARK H PARENT 10 10 3 14
ROOT
ATOM      1  C   UNL     1      -5.290  -1.242 -25.954  1.00  0.00     0.015 C 
ATOM      2  C   UNL     1      -5.754  -0.388 -25.028  1.00  0.00     0.094 C 
ENDROOT
BRANCH   1   3
ATOM      3  C   UNL     1      -4.338  -0.862 -27.004  1.00  0.00    -0.025 A 
ATOM      4  C   UNL     1      -4.079  -1.685 -28.110  1.00  0.00     0.012 A 
ATOM      5  C   UNL     1      -3.145  -1.303 -29.078  1.00  0.00     0.047 A 
ATOM      6  C   UNL     1      -2.464  -0.099 -28.934  1.00  0.00     0.115 A 
ATOM      7  C   UNL     1      -3.628   0.338 -26.871  1.00  0.00     0.012 A 
ATOM      8  C   UNL     1      -2.697   0.721 -27.838  1.00  0.00     0.047 A 
BRANCH   6   9
ATOM      9  O   UNL     1      -1.545   0.313 -29.852  1.00  0.00    -0.508 OA
ATOM     10  H   UNL     1      -1.238  -0.460 -30.356  1.00  0.00     0.293 HD
ENDBRANCH   6   9
ENDBRANCH   1   3
BRANCH   2  11
ATOM     11  C   UNL     1      -6.699  -0.878 -24.004  1.00  0.00     0.328 C 
ATOM     12  O   UNL     1      -7.573  -0.205 -23.486  1.00  0.00    -0.247 OA
BRANCH  11  13
ATOM     13  O   UNL     1      -6.485  -2.173 -23.698  1.00  0.00    -0.478 OA
ATOM     14  H   UNL     1      -5.554  -2.457 -23.697  1.00  0.00     0.297 HD
ENDBRANCH  11  13
ENDBRANCH   2  11
TORSDOF 4
ENDMDL
MODEL 5
REMARK VINA RESULT:      -5.9     15.963     18.830
REMARK SMILES O=C(O)/C=C/c1ccc(O)cc1
REMARK SMILES IDX 5 1 4 2 6 3 7 4 8 5 9 6 12 7 11 8 10 9 2 11 1 12 3 13
REMARK H PARENT 10 10 3 14
ROOT
ATOM      1  C   UNL     1      -8.317   0.298 -32.062  1.00  0.00     0.015 C 
ATOM      2  C   UNL     1      -8.844   0.880 -33.151  1.00  0.00     0.094 C 
ENDROOT
BRANCH   1   3
ATOM      3  C   UNL     1      -6.884   0.312 -31.746  1.00  0.00    -0.025 A 
ATOM      4  C   UNL     1      -6.298  -0.634 -30.892  1.00  0.00     0.012 A 
ATOM      5  C   UNL     1      -4.933  -0.574 -30.592  1.00  0.00     0.047 A 
ATOM      6  C   UNL     1      -4.156   0.440 -31.142  1.00  0.00     0.115 A 
ATOM      7  C   UNL     1      -6.086   1.335 -32.274  1.00  0.00     0.012 A 
ATOM      8  C   UNL     1      -4.723   1.394 -31.978  1.00  0.00     0.047 A 
BRANCH   6   9
ATOM      9  O   UNL     1      -2.824   0.539 -30.877  1.00  0.00    -0.508 OA
ATOM     10  H   UNL     1      -2.546  -0.245 -30.373  1.00  0.00     0.293 HD
ENDBRANCH   6   9
ENDBRANCH   1   3
BRANCH   2  11
ATOM     11  C   UNL     1     -10.303   0.821 -33.365  1.00  0.00     0.328 C 
ATOM     12  O   UNL     1     -10.903  -0.147 -33.800  1.00  0.00    -0.247 OA
BRANCH  11  13
ATOM     13  O   UNL     1     -10.912   1.973 -33.023  1.00  0.00    -0.478 OA
ATOM     14  H   UNL     1     -11.462   1.937 -32.220  1.00  0.00     0.297 HD
ENDBRANCH  11  13
ENDBRANCH   2  11
TORSDOF 4
ENDMDL
MODEL 6
REMARK VINA RESULT:      -5.9     16.031     18.811
REMARK SMILES O=C(O)/C=C/c1ccc(O)cc1
REMARK SMILES IDX 5 1 4 2 6 3 7 4 8 5 9 6 12 7 11 8 10 9 2 11 1 12 3 13
REMARK H PARENT 10 10 3 14
ROOT
ATOM      1  C   UNL     1      -8.555   1.618 -31.828  1.00  0.00     0.015 C 
ATOM      2  C   UNL     1      -8.917   0.828 -32.852  1.00  0.00     0.094 C 
ENDROOT
BRANCH   1   3
ATOM      3  C   UNL     1      -7.180   1.716 -31.325  1.00  0.00    -0.025 A 
ATOM      4  C   UNL     1      -6.105   1.070 -31.956  1.00  0.00     0.012 A 
ATOM      5  C   UNL     1      -4.812   1.163 -31.433  1.00  0.00     0.047 A 
ATOM      6  C   UNL     1      -4.595   1.898 -30.272  1.00  0.00     0.115 A 
ATOM      7  C   UNL     1      -6.940   2.436 -30.148  1.00  0.00     0.012 A 
ATOM      8  C   UNL     1      -5.649   2.532 -29.626  1.00  0.00     0.047 A 
BRANCH   6   9
ATOM      9  O   UNL     1      -3.352   2.016 -29.726  1.00  0.00    -0.508 OA
ATOM     10  H   UNL     1      -3.442   2.141 -28.767  1.00  0.00     0.293 HD
ENDBRANCH   6   9
ENDBRANCH   1   3
BRANCH   2  11
ATOM     11  C   UNL     1     -10.326   0.816 -33.289  1.00  0.00     0.328 C 
ATOM     12  O   UNL     1     -10.880  -0.129 -33.823  1.00  0.00    -0.247 OA
BRANCH  11  13
ATOM     13  O   UNL     1     -10.946   1.985 -33.032  1.00  0.00    -0.478 OA
ATOM     14  H   UNL     1     -10.946   2.264 -32.099  1.00  0.00     0.297 HD
ENDBRANCH  11  13
ENDBRANCH   2  11
TORSDOF 4
ENDMDL
MODEL 7
REMARK VINA RESULT:      -5.9      1.677      2.533
REMARK SMILES O=C(O)/C=C/c1ccc(O)cc1
REMARK SMILES IDX 5 1 4 2 6 3 7 4 8 5 9 6 12 7 11 8 10 9 2 11 1 12 3 13
REMARK H PARENT 10 10 3 14
ROOT
ATOM      1  C   UNL     1       7.720  -1.424 -19.187  1.00  0.00     0.015 C 
ATOM      2  C   UNL     1       6.466  -1.516 -19.655  1.00  0.00     0.094 C 
ENDROOT
BRANCH   1   3
ATOM      3  C   UNL     1       8.110  -0.548 -18.076  1.00  0.00    -0.025 A 
ATOM      4  C   UNL     1       9.314  -0.721 -17.376  1.00  0.00     0.012 A 
ATOM      5  C   UNL     1       9.640   0.116 -16.304  1.00  0.00     0.047 A 
ATOM      6  C   UNL     1       8.757   1.122 -15.928  1.00  0.00     0.115 A 
ATOM      7  C   UNL     1       7.228   0.460 -17.668  1.00  0.00     0.012 A 
ATOM      8  C   UNL     1       7.554   1.298 -16.600  1.00  0.00     0.047 A 
BRANCH   6   9
ATOM      9  O   UNL     1       9.033   1.960 -14.890  1.00  0.00    -0.508 OA
ATOM     10  H   UNL     1       8.362   2.663 -14.868  1.00  0.00     0.293 HD
ENDBRANCH   6   9
ENDBRANCH   1   3
BRANCH   2  11
ATOM     11  C   UNL     1       6.178  -2.442 -20.769  1.00  0.00     0.328 C 
ATOM     12  O   UNL     1       5.524  -2.158 -21.757  1.00  0.00    -0.247 OA
BRANCH  11  13
ATOM     13  O   UNL     1       6.726  -3.657 -20.570  1.00  0.00    -0.478 OA
ATOM     14  H   UNL     1       7.693  -3.669 -20.459  1.00  0.00     0.297 HD
ENDBRANCH  11  13
ENDBRANCH   2  11
TORSDOF 4
ENDMDL
MODEL 8
REMARK VINA RESULT:      -5.9      2.543      6.449
REMARK SMILES O=C(O)/C=C/c1ccc(O)cc1
REMARK SMILES IDX 5 1 4 2 6 3 7 4 8 5 9 6 12 7 11 8 10 9 2 11 1 12 3 13
REMARK H PARENT 10 10 3 14
ROOT
ATOM      1  C   UNL     1       5.329  -2.467 -21.541  1.00  0.00     0.015 C 
ATOM      2  C   UNL     1       5.974  -1.702 -20.645  1.00  0.00     0.094 C 
ENDROOT
BRANCH   1   3
ATOM      3  C   UNL     1       4.863  -1.976 -22.843  1.00  0.00    -0.025 A 
ATOM      4  C   UNL     1       3.538  -2.141 -23.273  1.00  0.00     0.012 A 
ATOM      5  C   UNL     1       3.136  -1.684 -24.532  1.00  0.00     0.047 A 
ATOM      6  C   UNL     1       4.065  -1.067 -25.365  1.00  0.00     0.115 A 
ATOM      7  C   UNL     1       5.785  -1.368 -23.705  1.00  0.00     0.012 A 
ATOM      8  C   UNL     1       5.384  -0.909 -24.961  1.00  0.00     0.047 A 
BRANCH   6   9
ATOM      9  O   UNL     1       3.718  -0.607 -26.599  1.00  0.00    -0.508 OA
ATOM     10  H   UNL     1       3.421   0.314 -26.518  1.00  0.00     0.293 HD
ENDBRANCH   6   9
ENDBRANCH   1   3
BRANCH   2  11
ATOM     11  C   UNL     1       6.414  -2.302 -19.370  1.00  0.00     0.328 C 
ATOM     12  O   UNL     1       6.499  -1.701 -18.313  1.00  0.00    -0.247 OA
BRANCH  11  13
ATOM     13  O   UNL     1       6.717  -3.608 -19.503  1.00  0.00    -0.478 OA
ATOM     14  H   UNL     1       6.274  -4.070 -20.236  1.00  0.00     0.297 HD
ENDBRANCH  11  13
ENDBRANCH   2  11
TORSDOF 4
ENDMDL
MODEL 9
REMARK VINA RESULT:      -5.8     11.723     13.960
REMARK SMILES O=C(O)/C=C/c1ccc(O)cc1
REMARK SMILES IDX 5 1 4 2 6 3 7 4 8 5 9 6 12 7 11 8 10 9 2 11 1 12 3 13
REMARK H PARENT 10 10 3 14
ROOT
ATOM      1  C   UNL     1       0.738 -10.181 -25.382  1.00  0.00     0.015 C 
ATOM      2  C   UNL     1       0.893 -11.273 -24.617  1.00  0.00     0.094 C 
ENDROOT
BRANCH   1   3
ATOM      3  C   UNL     1      -0.391  -9.986 -26.299  1.00  0.00    -0.025 A 
ATOM      4  C   UNL     1      -0.767 -10.958 -27.238  1.00  0.00     0.012 A 
ATOM      5  C   UNL     1      -1.832 -10.726 -28.115  1.00  0.00     0.047 A 
ATOM      6  C   UNL     1      -2.515  -9.516 -28.056  1.00  0.00     0.115 A 
ATOM      7  C   UNL     1      -1.082  -8.768 -26.270  1.00  0.00     0.012 A 
ATOM      8  C   UNL     1      -2.147  -8.537 -27.143  1.00  0.00     0.047 A 
BRANCH   6   9
ATOM      9  O   UNL     1      -3.558  -9.247 -28.891  1.00  0.00    -0.508 OA
ATOM     10  H   UNL     1      -4.080 -10.058 -29.011  1.00  0.00     0.293 HD
ENDBRANCH   6   9
ENDBRANCH   1   3
BRANCH   2  11
ATOM     11  C   UNL     1       2.059 -11.362 -23.715  1.00  0.00     0.328 C 
ATOM     12  O   UNL     1       2.224 -12.231 -22.876  1.00  0.00    -0.247 OA
BRANCH  11  13
ATOM     13  O   UNL     1       2.937 -10.361 -23.924  1.00  0.00    -0.478 OA
ATOM     14  H   UNL     1       2.778  -9.821 -24.719  1.00  0.00     0.297 HD
ENDBRANCH  11  13
ENDBRANCH   2  11
TORSDOF 4
ENDMDL
MODEL 10
REMARK VINA RESULT:      -5.8     15.961     19.440
REMARK SMILES O=C(O)/C=C/c1ccc(O)cc1
REMARK SMILES IDX 5 1 4 2 6 3 7 4 8 5 9 6 12 7 11 8 10 9 2 11 1 12 3 13
REMARK H PARENT 10 10 3 14
ROOT
ATOM      1  C   UNL     1      -6.097   1.003 -31.910  1.00  0.00     0.015 C 
ATOM      2  C   UNL     1      -5.332   0.148 -31.213  1.00  0.00     0.094 C 
ENDROOT
BRANCH   1   3
ATOM      3  C   UNL     1      -7.490   0.728 -32.281  1.00  0.00    -0.025 A 
ATOM      4  C   UNL     1      -8.307   1.696 -32.885  1.00  0.00     0.012 A 
ATOM      5  C   UNL     1      -9.639   1.407 -33.200  1.00  0.00     0.047 A 
ATOM      6  C   UNL     1     -10.155   0.150 -32.903  1.00  0.00     0.115 A 
ATOM      7  C   UNL     1      -8.037  -0.525 -31.975  1.00  0.00     0.012 A 
ATOM      8  C   UNL     1      -9.366  -0.815 -32.291  1.00  0.00     0.047 A 
BRANCH   6   9
ATOM      9  O   UNL     1     -11.447  -0.175 -33.191  1.00  0.00    -0.508 OA
ATOM     10  H   UNL     1     -11.961   0.644 -33.290  1.00  0.00     0.293 HD
ENDBRANCH   6   9
ENDBRANCH   1   3
BRANCH   2  11
ATOM     11  C   UNL     1      -3.946   0.531 -30.878  1.00  0.00     0.328 C 
ATOM     12  O   UNL     1      -3.580   0.931 -29.787  1.00  0.00    -0.247 OA
BRANCH  11  13
ATOM     13  O   UNL     1      -3.114   0.387 -31.928  1.00  0.00    -0.478 OA
ATOM     14  H   UNL     1      -3.471   0.667 -32.790  1.00  0.00     0.297 HD
ENDBRANCH  11  13
ENDBRANCH   2  11
TORSDOF 4
ENDMDL
