MODEL 1
REMARK VINA RESULT:      -7.4      0.000      0.000
REMARK SMILES O=C(O)/C=C/c1cccc(O)c1
REMARK SMILES IDX 5 1 4 2 6 3 8 4 7 5 9 6 10 7 12 8 11 9 2 11 1 12 3 13
REMARK H PARENT 11 10 3 14
ROOT
ATOM      1  C   UNL     1       5.261  -2.701 -22.115  1.00  0.00     0.016 C 
ATOM      2  C   UNL     1       5.974  -2.081 -21.161  1.00  0.00     0.094 C 
ENDROOT
BRANCH   1   3
ATOM      3  C   UNL     1       4.660  -1.998 -23.254  1.00  0.00    -0.022 A 
ATOM      4  C   UNL     1       2.656  -1.311 -24.443  1.00  0.00     0.004 A 
ATOM      5  C   UNL     1       3.264  -1.959 -23.364  1.00  0.00     0.008 A 
ATOM      6  C   UNL     1       3.439  -0.710 -25.425  1.00  0.00     0.046 A 
ATOM      7  C   UNL     1       4.824  -0.765 -25.327  1.00  0.00     0.116 A 
ATOM      8  C   UNL     1       5.444  -1.405 -24.255  1.00  0.00     0.054 A 
BRANCH   7   9
ATOM      9  O   UNL     1       5.551  -0.178 -26.321  1.00  0.00    -0.508 OA
ATOM     10  H   UNL     1       6.458  -0.033 -26.004  1.00  0.00     0.293 HD
ENDBRANCH   7   9
ENDBRANCH   1   3
BRANCH   2  11
ATOM     11  C   UNL     1       6.525  -2.874 -20.045  1.00  0.00     0.328 C 
ATOM     12  O   UNL     1       5.892  -3.681 -19.387  1.00  0.00    -0.247 OA
BRANCH  11  13
ATOM     13  O   UNL     1       7.828  -2.606 -19.831  1.00  0.00    -0.478 OA
ATOM     14  H   UNL     1       8.350  -2.385 -20.624  1.00  0.00     0.297 HD
ENDBRANCH  11  13
ENDBRANCH   2  11
TORSDOF 4
ENDMDL
MODEL 2
REMARK VINA RESULT:      -6.7      2.690      6.352
REMARK SMILES O=C(O)/C=C/c1cccc(O)c1
REMARK SMILES IDX 5 1 4 2 6 3 8 4 7 5 9 6 10 7 12 8 11 9 2 11 1 12 3 13
REMARK H PARENT 11 10 3 14
ROOT
ATOM      1  C   UNL     1       6.076  -2.402 -20.753  1.00  0.00     0.016 C 
ATOM      2  C   UNL     1       5.379  -1.670 -21.637  1.00  0.00     0.094 C 
ENDROOT
BRANCH   1   3
ATOM      3  C   UNL     1       6.616  -1.852 -19.505  1.00  0.00    -0.022 A 
ATOM      4  C   UNL     1       8.369  -0.603 -18.377  1.00  0.00     0.004 A 
ATOM      5  C   UNL     1       7.816  -1.129 -19.548  1.00  0.00     0.008 A 
ATOM      6  C   UNL     1       7.735  -0.809 -17.155  1.00  0.00     0.046 A 
ATOM      7  C   UNL     1       6.557  -1.543 -17.108  1.00  0.00     0.116 A 
ATOM      8  C   UNL     1       5.992  -2.070 -18.268  1.00  0.00     0.054 A 
BRANCH   7   9
ATOM      9  O   UNL     1       5.979  -1.735 -15.886  1.00  0.00    -0.508 OA
ATOM     10  H   UNL     1       6.600  -2.219 -15.317  1.00  0.00     0.293 HD
ENDBRANCH   7   9
ENDBRANCH   1   3
BRANCH   2  11
ATOM     11  C   UNL     1       4.890  -2.310 -22.874  1.00  0.00     0.328 C 
ATOM     12  O   UNL     1       4.182  -3.301 -22.910  1.00  0.00    -0.247 OA
BRANCH  11  13
ATOM     13  O   UNL     1       5.316  -1.666 -23.978  1.00  0.00    -0.478 OA
ATOM     14  H   UNL     1       6.270  -1.470 -24.011  1.00  0.00     0.297 HD
ENDBRANCH  11  13
ENDBRANCH   2  11
TORSDOF 4
ENDMDL
MODEL 3
REMARK VINA RESULT:      -6.6      2.896      6.265
REMARK SMILES O=C(O)/C=C/c1cccc(O)c1
REMARK SMILES IDX 5 1 4 2 6 3 8 4 7 5 9 6 10 7 12 8 11 9 2 11 1 12 3 13
REMARK H PARENT 11 10 3 14
ROOT
ATOM      1  C   UNL     1       6.308  -2.225 -20.415  1.00  0.00     0.016 C 
ATOM      2  C   UNL     1       5.433  -1.612 -21.228  1.00  0.00     0.094 C 
ENDROOT
BRANCH   1   3
ATOM      3  C   UNL     1       6.700  -1.690 -19.106  1.00  0.00    -0.022 A 
ATOM      4  C   UNL     1       6.438  -1.721 -16.691  1.00  0.00     0.004 A 
ATOM      5  C   UNL     1       6.101  -2.216 -17.954  1.00  0.00     0.008 A 
ATOM      6  C   UNL     1       7.364  -0.687 -16.573  1.00  0.00     0.046 A 
ATOM      7  C   UNL     1       7.942  -0.150 -17.717  1.00  0.00     0.116 A 
ATOM      8  C   UNL     1       7.618  -0.637 -18.982  1.00  0.00     0.054 A 
BRANCH   7   9
ATOM      9  O   UNL     1       8.830   0.873 -17.555  1.00  0.00    -0.508 OA
ATOM     10  H   UNL     1       8.401   1.586 -17.053  1.00  0.00     0.293 HD
ENDBRANCH   7   9
ENDBRANCH   1   3
BRANCH   2  11
ATOM     11  C   UNL     1       5.115  -2.222 -22.534  1.00  0.00     0.328 C 
ATOM     12  O   UNL     1       5.443  -1.761 -23.613  1.00  0.00    -0.247 OA
BRANCH  11  13
ATOM     13  O   UNL     1       4.412  -3.364 -22.401  1.00  0.00    -0.478 OA
ATOM     14  H   UNL     1       4.898  -4.115 -22.015  1.00  0.00     0.297 HD
ENDBRANCH  11  13
ENDBRANCH   2  11
TORSDOF 4
ENDMDL
MODEL 4
REMARK VINA RESULT:      -6.5      2.037      5.768
REMARK SMILES O=C(O)/C=C/c1cccc(O)c1
REMARK SMILES IDX 5 1 4 2 6 3 8 4 7 5 9 6 10 7 12 8 11 9 2 11 1 12 3 13
REMARK H PARENT 11 10 3 14
ROOT
ATOM      1  C   UNL     1       5.487   0.048 -26.092  1.00  0.00     0.016 C 
ATOM      2  C   UNL     1       5.323  -0.086 -27.419  1.00  0.00     0.094 C 
ENDROOT
BRANCH   1   3
ATOM      3  C   UNL     1       4.730  -0.732 -25.107  1.00  0.00    -0.022 A 
ATOM      4  C   UNL     1       2.575  -1.450 -24.244  1.00  0.00     0.004 A 
ATOM      5  C   UNL     1       3.330  -0.731 -25.175  1.00  0.00     0.008 A 
ATOM      6  C   UNL     1       3.214  -2.162 -23.232  1.00  0.00     0.046 A 
ATOM      7  C   UNL     1       4.600  -2.147 -23.152  1.00  0.00     0.116 A 
ATOM      8  C   UNL     1       5.366  -1.437 -24.075  1.00  0.00     0.054 A 
BRANCH   7   9
ATOM      9  O   UNL     1       5.182  -2.845 -22.133  1.00  0.00    -0.508 OA
ATOM     10  H   UNL     1       6.025  -3.212 -22.445  1.00  0.00     0.293 HD
ENDBRANCH   7   9
ENDBRANCH   1   3
BRANCH   2  11
ATOM     11  C   UNL     1       6.121   0.757 -28.331  1.00  0.00     0.328 C 
ATOM     12  O   UNL     1       5.920   0.866 -29.528  1.00  0.00    -0.247 OA
BRANCH  11  13
ATOM     13  O   UNL     1       7.109   1.406 -27.685  1.00  0.00    -0.478 OA
ATOM     14  H   UNL     1       6.900   2.312 -27.395  1.00  0.00     0.297 HD
ENDBRANCH  11  13
ENDBRANCH   2  11
TORSDOF 4
ENDMDL
MODEL 5
REMARK VINA RESULT:      -6.1     13.488     16.501
REMARK SMILES O=C(O)/C=C/c1cccc(O)c1
REMARK SMILES IDX 5 1 4 2 6 3 8 4 7 5 9 6 10 7 12 8 11 9 2 11 1 12 3 13
REMARK H PARENT 11 10 3 14
ROOT
ATOM      1  C   UNL     1      -8.571   1.680 -31.901  1.00  0.00     0.016 C 
ATOM      2  C   UNL     1      -8.907   0.871 -32.919  1.00  0.00     0.094 C 
ENDROOT
BRANCH   1   3
ATOM      3  C   UNL     1      -7.198   1.816 -31.403  1.00  0.00    -0.022 A 
ATOM      4  C   UNL     1      -5.695   2.546 -29.639  1.00  0.00     0.004 A 
ATOM      5  C   UNL     1      -6.990   2.387 -30.140  1.00  0.00     0.008 A 
ATOM      6  C   UNL     1      -4.600   2.150 -30.403  1.00  0.00     0.046 A 
ATOM      7  C   UNL     1      -4.804   1.603 -31.663  1.00  0.00     0.116 A 
ATOM      8  C   UNL     1      -6.090   1.434 -32.173  1.00  0.00     0.054 A 
BRANCH   7   9
ATOM      9  O   UNL     1      -3.702   1.245 -32.382  1.00  0.00    -0.508 OA
ATOM     10  H   UNL     1      -2.982   1.024 -31.768  1.00  0.00     0.293 HD
ENDBRANCH   7   9
ENDBRANCH   1   3
BRANCH   2  11
ATOM     11  C   UNL     1     -10.320   0.790 -33.338  1.00  0.00     0.328 C 
ATOM     12  O   UNL     1     -10.827  -0.172 -33.888  1.00  0.00    -0.247 OA
BRANCH  11  13
ATOM     13  O   UNL     1     -11.001   1.913 -33.037  1.00  0.00    -0.478 OA
ATOM     14  H   UNL     1     -10.514   2.576 -32.515  1.00  0.00     0.297 HD
ENDBRANCH  11  13
ENDBRANCH   2  11
TORSDOF 4
ENDMDL
MODEL 6
REMARK VINA RESULT:      -6.0      4.269      7.407
REMARK SMILES O=C(O)/C=C/c1cccc(O)c1
REMARK SMILES IDX 5 1 4 2 6 3 8 4 7 5 9 6 10 7 12 8 11 9 2 11 1 12 3 13
REMARK H PARENT 11 10 3 14
ROOT
ATOM      1  C   UNL     1       7.820  -1.290 -19.097  1.00  0.00     0.016 C 
ATOM      2  C   UNL     1       6.539  -1.492 -19.444  1.00  0.00     0.094 C 
ENDROOT
BRANCH   1   3
ATOM      3  C   UNL     1       8.223  -0.444 -17.968  1.00  0.00    -0.022 A 
ATOM      4  C   UNL     1       9.707  -0.073 -16.080  1.00  0.00     0.004 A 
ATOM      5  C   UNL     1       9.304  -0.846 -17.173  1.00  0.00     0.008 A 
ATOM      6  C   UNL     1       9.022   1.099 -15.767  1.00  0.00     0.046 A 
ATOM      7  C   UNL     1       7.937   1.487 -16.542  1.00  0.00     0.116 A 
ATOM      8  C   UNL     1       7.527   0.729 -17.637  1.00  0.00     0.054 A 
BRANCH   7   9
ATOM      9  O   UNL     1       7.285   2.633 -16.188  1.00  0.00    -0.508 OA
ATOM     10  H   UNL     1       6.870   2.503 -15.319  1.00  0.00     0.293 HD
ENDBRANCH   7   9
ENDBRANCH   1   3
BRANCH   2  11
ATOM     11  C   UNL     1       6.234  -2.348 -20.607  1.00  0.00     0.328 C 
ATOM     12  O   UNL     1       5.599  -1.992 -21.584  1.00  0.00    -0.247 OA
BRANCH  11  13
ATOM     13  O   UNL     1       6.747  -3.586 -20.470  1.00  0.00    -0.478 OA
ATOM     14  H   UNL     1       6.654  -4.169 -21.246  1.00  0.00     0.297 HD
ENDBRANCH  11  13
ENDBRANCH   2  11
TORSDOF 4
ENDMDL
MODEL 7
REMARK VINA RESULT:      -5.9      9.637     10.834
REMARK SMILES O=C(O)/C=C/c1cccc(O)c1
REMARK SMILES IDX 5 1 4 2 6 3 8 4 7 5 9 6 10 7 12 8 11 9 2 11 1 12 3 13
REMARK H PARENT 11 10 3 14
ROOT
ATOM      1  C   UNL     1      -5.621  -1.093 -26.089  1.00  0.00     0.016 C 
ATOM      2  C   UNL     1      -5.538  -0.739 -24.796  1.00  0.00     0.094 C 
ENDROOT
BRANCH   1   3
ATOM      3  C   UNL     1      -4.541  -0.864 -27.055  1.00  0.00    -0.022 A 
ATOM      4  C   UNL     1      -3.407  -1.538 -29.095  1.00  0.00     0.004 A 
ATOM      5  C   UNL     1      -4.432  -1.716 -28.162  1.00  0.00     0.008 A 
ATOM      6  C   UNL     1      -2.477  -0.516 -28.920  1.00  0.00     0.046 A 
ATOM      7  C   UNL     1      -2.572   0.316 -27.813  1.00  0.00     0.116 A 
ATOM      8  C   UNL     1      -3.591   0.153 -26.876  1.00  0.00     0.054 A 
BRANCH   7   9
ATOM      9  O   UNL     1      -1.629   1.292 -27.673  1.00  0.00    -0.508 OA
ATOM     10  H   UNL     1      -0.774   0.878 -27.471  1.00  0.00     0.293 HD
ENDBRANCH   7   9
ENDBRANCH   1   3
BRANCH   2  11
ATOM     11  C   UNL     1      -6.686  -0.996 -23.904  1.00  0.00     0.328 C 
ATOM     12  O   UNL     1      -7.552  -0.183 -23.635  1.00  0.00    -0.247 OA
BRANCH  11  13
ATOM     13  O   UNL     1      -6.672  -2.251 -23.414  1.00  0.00    -0.478 OA
ATOM     14  H   UNL     1      -7.042  -2.359 -22.518  1.00  0.00     0.297 HD
ENDBRANCH  11  13
ENDBRANCH   2  11
TORSDOF 4
ENDMDL
MODEL 8
REMARK VINA RESULT:      -5.9     11.722     13.016
REMARK SMILES O=C(O)/C=C/c1cccc(O)c1
REMARK SMILES IDX 5 1 4 2 6 3 8 4 7 5 9 6 10 7 12 8 11 9 2 11 1 12 3 13
REMARK H PARENT 11 10 3 14
ROOT
ATOM      1  C   UNL     1      -3.660 -10.101 -27.502  1.00  0.00     0.016 C 
ATOM      2  C   UNL     1      -4.463 -10.755 -26.647  1.00  0.00     0.094 C 
ENDROOT
BRANCH   1   3
ATOM      3  C   UNL     1      -2.218  -9.942 -27.287  1.00  0.00    -0.022 A 
ATOM      4  C   UNL     1      -0.277  -8.480 -27.241  1.00  0.00     0.004 A 
ATOM      5  C   UNL     1      -1.650  -8.668 -27.423  1.00  0.00     0.008 A 
ATOM      6  C   UNL     1       0.539  -9.566 -26.935  1.00  0.00     0.046 A 
ATOM      7  C   UNL     1      -0.019 -10.833 -26.821  1.00  0.00     0.116 A 
ATOM      8  C   UNL     1      -1.387 -11.034 -26.996  1.00  0.00     0.054 A 
BRANCH   7   9
ATOM      9  O   UNL     1       0.821 -11.870 -26.538  1.00  0.00    -0.508 OA
ATOM     10  H   UNL     1       0.447 -12.388 -25.806  1.00  0.00     0.293 HD
ENDBRANCH   7   9
ENDBRANCH   1   3
BRANCH   2  11
ATOM     11  C   UNL     1      -5.906 -10.848 -26.942  1.00  0.00     0.328 C 
ATOM     12  O   UNL     1      -6.601 -11.821 -26.708  1.00  0.00    -0.247 OA
BRANCH  11  13
ATOM     13  O   UNL     1      -6.380  -9.720 -27.506  1.00  0.00    -0.478 OA
ATOM     14  H   UNL     1      -6.662  -9.024 -26.885  1.00  0.00     0.297 HD
ENDBRANCH  11  13
ENDBRANCH   2  11
TORSDOF 4
ENDMDL
MODEL 9
REMARK VINA RESULT:      -5.8     10.168     10.894
REMARK SMILES O=C(O)/C=C/c1cccc(O)c1
REMARK SMILES IDX 5 1 4 2 6 3 8 4 7 5 9 6 10 7 12 8 11 9 2 11 1 12 3 13
REMARK H PARENT 11 10 3 14
ROOT
ATOM      1  C   UNL     1      -4.638  -0.247 -25.876  1.00  0.00     0.016 C 
ATOM      2  C   UNL     1      -5.728  -1.008 -25.688  1.00  0.00     0.094 C 
ENDROOT
BRANCH   1   3
ATOM      3  C   UNL     1      -3.857  -0.257 -27.118  1.00  0.00    -0.022 A 
ATOM      4  C   UNL     1      -2.087   0.725 -28.461  1.00  0.00     0.004 A 
ATOM      5  C   UNL     1      -2.842   0.694 -27.286  1.00  0.00     0.008 A 
ATOM      6  C   UNL     1      -2.352  -0.184 -29.482  1.00  0.00     0.046 A 
ATOM      7  C   UNL     1      -3.372  -1.113 -29.326  1.00  0.00     0.116 A 
ATOM      8  C   UNL     1      -4.130  -1.159 -28.157  1.00  0.00     0.054 A 
BRANCH   7   9
ATOM      9  O   UNL     1      -3.608  -1.973 -30.359  1.00  0.00    -0.508 OA
ATOM     10  H   UNL     1      -3.885  -1.462 -31.137  1.00  0.00     0.293 HD
ENDBRANCH   7   9
ENDBRANCH   1   3
BRANCH   2  11
ATOM     11  C   UNL     1      -6.439  -0.941 -24.396  1.00  0.00     0.328 C 
ATOM     12  O   UNL     1      -6.938   0.068 -23.930  1.00  0.00    -0.247 OA
BRANCH  11  13
ATOM     13  O   UNL     1      -6.477  -2.138 -23.778  1.00  0.00    -0.478 OA
ATOM     14  H   UNL     1      -7.203  -2.260 -23.139  1.00  0.00     0.297 HD
ENDBRANCH  11  13
ENDBRANCH   2  11
TORSDOF 4
ENDMDL
MODEL 10
REMARK VINA RESULT:      -5.8     13.386     16.376
REMARK SMILES O=C(O)/C=C/c1cccc(O)c1
REMARK SMILES IDX 5 1 4 2 6 3 8 4 7 5 9 6 10 7 12 8 11 9 2 11 1 12 3 13
REMARK H PARENT 11 10 3 14
ROOT
ATOM      1  C   UNL     1      -8.509   1.286 -31.724  1.00  0.00     0.016 C 
ATOM      2  C   UNL     1      -9.077   0.666 -32.771  1.00  0.00     0.094 C 
ENDROOT
BRANCH   1   3
ATOM      3  C   UNL     1      -7.074   1.215 -31.429  1.00  0.00    -0.022 A 
ATOM      4  C   UNL     1      -5.104  -0.152 -31.036  1.00  0.00     0.004 A 
ATOM      5  C   UNL     1      -6.466  -0.044 -31.331  1.00  0.00     0.008 A 
ATOM      6  C   UNL     1      -4.345   0.996 -30.824  1.00  0.00     0.046 A 
ATOM      7  C   UNL     1      -4.951   2.244 -30.900  1.00  0.00     0.116 A 
ATOM      8  C   UNL     1      -6.308   2.366 -31.197  1.00  0.00     0.054 A 
BRANCH   7   9
ATOM      9  O   UNL     1      -4.173   3.340 -30.668  1.00  0.00    -0.508 OA
ATOM     10  H   UNL     1      -4.627   3.920 -30.035  1.00  0.00     0.293 HD
ENDBRANCH   7   9
ENDBRANCH   1   3
BRANCH   2  11
ATOM     11  C   UNL     1     -10.534   0.784 -32.975  1.00  0.00     0.328 C 
ATOM     12  O   UNL     1     -11.303  -0.158 -33.049  1.00  0.00    -0.247 OA
BRANCH  11  13
ATOM     13  O   UNL     1     -10.928   2.069 -33.068  1.00  0.00    -0.478 OA
ATOM     14  H   UNL     1     -11.831   2.210 -33.405  1.00  0.00     0.297 HD
ENDBRANCH  11  13
ENDBRANCH   2  11
TORSDOF 4
ENDMDL
