MODEL 1
REMARK VINA RESULT:      -5.6      0.000      0.000
REMARK SMILES C/C=C/[S@@](=O)C[C@H]([NH3+])C(=O)[O-]
REMARK SMILES IDX 6 1 4 2 5 3 3 4 2 5 1 6 7 7 9 8 10 9 11 10 8 11
REMARK H PARENT 8 12 8 13 8 14
ROOT
ATOM      1  C   UNL     1      -3.851 -10.504 -26.921  1.00  0.00     0.181 C 
ENDROOT
BRANCH   1   2
ATOM      2  S   UNL     1      -3.257  -8.831 -27.340  1.00  0.00     0.052 S 
ATOM      3  O   UNL     1      -3.025  -8.855 -28.824  1.00  0.00    -0.255 OA
BRANCH   2   4
ATOM      4  C   UNL     1      -1.615  -8.955 -26.644  1.00  0.00     0.070 C 
ATOM      5  C   UNL     1      -1.097 -10.178 -26.453  1.00  0.00    -0.021 C 
ATOM      6  C   UNL     1       0.236 -10.429 -25.828  1.00  0.00     0.036 C 
ENDBRANCH   2   4
ENDBRANCH   1   2
BRANCH   1   7
ATOM      7  C   UNL     1      -5.340 -10.720 -27.114  1.00  0.00     0.240 C 
BRANCH   7   8
ATOM      8  C   UNL     1      -5.972 -11.195 -25.780  1.00  0.00     0.100 C 
ATOM      9  O   UNL     1      -6.225 -10.176 -25.055  1.00  0.00    -0.544 OA
ATOM     10  O   UNL     1      -6.209 -12.412 -25.653  1.00  0.00    -0.544 OA
ENDBRANCH   7   8
BRANCH   7  11
ATOM     11  N   UNL     1      -5.989  -9.373 -27.473  1.00  0.00    -0.350 N 
ATOM     12  H   UNL     1      -5.244  -8.712 -27.123  1.00  0.00     0.345 HD
ATOM     13  H   UNL     1      -6.794  -9.173 -26.876  1.00  0.00     0.345 HD
ATOM     14  H   UNL     1      -6.155  -9.188 -28.462  1.00  0.00     0.345 HD
ENDBRANCH   7  11
ENDBRANCH   1   7
TORSDOF 5
ENDMDL
MODEL 2
REMARK VINA RESULT:      -5.5     12.409     13.404
REMARK SMILES C/C=C/[S@@](=O)C[C@H]([NH3+])C(=O)[O-]
REMARK SMILES IDX 6 1 4 2 5 3 3 4 2 5 1 6 7 7 9 8 10 9 11 10 8 11
REMARK H PARENT 8 12 8 13 8 14
ROOT
ATOM      1  C   UNL     1       5.312  -0.958 -24.587  1.00  0.00     0.181 C 
ENDROOT
BRANCH   1   2
ATOM      2  S   UNL     1       4.501  -2.278 -23.626  1.00  0.00     0.052 S 
ATOM      3  O   UNL     1       3.080  -1.823 -23.451  1.00  0.00    -0.255 OA
BRANCH   2   4
ATOM      4  C   UNL     1       5.258  -1.949 -22.039  1.00  0.00     0.070 C 
ATOM      5  C   UNL     1       5.759  -2.984 -21.349  1.00  0.00    -0.021 C 
ATOM      6  C   UNL     1       6.365  -2.862 -19.989  1.00  0.00     0.036 C 
ENDBRANCH   2   4
ENDBRANCH   1   2
BRANCH   1   7
ATOM      7  C   UNL     1       4.527  -0.470 -25.790  1.00  0.00     0.240 C 
BRANCH   7   8
ATOM      8  C   UNL     1       5.502   0.133 -26.835  1.00  0.00     0.100 C 
ATOM      9  O   UNL     1       6.348   0.875 -26.233  1.00  0.00    -0.544 OA
ATOM     10  O   UNL     1       5.385  -0.241 -28.019  1.00  0.00    -0.544 OA
ENDBRANCH   7   8
BRANCH   7  11
ATOM     11  N   UNL     1       3.839  -1.677 -26.449  1.00  0.00    -0.350 N 
ATOM     12  H   UNL     1       3.894  -2.374 -25.658  1.00  0.00     0.345 HD
ATOM     13  H   UNL     1       4.424  -2.090 -27.179  1.00  0.00     0.345 HD
ATOM     14  H   UNL     1       2.864  -1.563 -26.721  1.00  0.00     0.345 HD
ENDBRANCH   7  11
ENDBRANCH   1   7
TORSDOF 5
ENDMDL
MODEL 3
REMARK VINA RESULT:      -5.4      3.030      5.013
REMARK SMILES C/C=C/[S@@](=O)C[C@H]([NH3+])C(=O)[O-]
REMARK SMILES IDX 6 1 4 2 5 3 3 4 2 5 1 6 7 7 9 8 10 9 11 10 8 11
REMARK H PARENT 8 12 8 13 8 14
ROOT
ATOM      1  C   UNL     1      -1.602 -10.052 -27.925  1.00  0.00     0.181 C 
ENDROOT
BRANCH   1   2
ATOM      2  S   UNL     1      -3.248  -9.267 -27.970  1.00  0.00     0.052 S 
ATOM      3  O   UNL     1      -3.233  -8.255 -26.860  1.00  0.00    -0.255 OA
BRANCH   2   4
ATOM      4  C   UNL     1      -4.202 -10.624 -27.303  1.00  0.00     0.070 C 
ATOM      5  C   UNL     1      -5.272 -10.336 -26.547  1.00  0.00    -0.021 C 
ATOM      6  C   UNL     1      -6.122 -11.367 -25.880  1.00  0.00     0.036 C 
ENDBRANCH   2   4
ENDBRANCH   1   2
BRANCH   1   7
ATOM      7  C   UNL     1      -0.698  -9.575 -26.803  1.00  0.00     0.240 C 
BRANCH   7   8
ATOM      8  C   UNL     1       0.072 -10.783 -26.209  1.00  0.00     0.100 C 
ATOM      9  O   UNL     1      -0.113 -11.801 -26.956  1.00  0.00    -0.544 OA
ATOM     10  O   UNL     1       0.785 -10.579 -25.207  1.00  0.00    -0.544 OA
ENDBRANCH   7   8
BRANCH   7  11
ATOM     11  N   UNL     1       0.346  -8.612 -27.390  1.00  0.00    -0.350 N 
ATOM     12  H   UNL     1       0.091  -8.666 -28.413  1.00  0.00     0.345 HD
ATOM     13  H   UNL     1       1.287  -9.009 -27.352  1.00  0.00     0.345 HD
ATOM     14  H   UNL     1       0.299  -7.639 -27.091  1.00  0.00     0.345 HD
ENDBRANCH   7  11
ENDBRANCH   1   7
TORSDOF 5
ENDMDL
MODEL 4
REMARK VINA RESULT:      -5.3     12.632     14.109
REMARK SMILES C/C=C/[S@@](=O)C[C@H]([NH3+])C(=O)[O-]
REMARK SMILES IDX 6 1 4 2 5 3 3 4 2 5 1 6 7 7 9 8 10 9 11 10 8 11
REMARK H PARENT 8 12 8 13 8 14
ROOT
ATOM      1  C   UNL     1       5.176   0.276 -26.465  1.00  0.00     0.181 C 
ENDROOT
BRANCH   1   2
ATOM      2  S   UNL     1       4.121  -1.026 -25.745  1.00  0.00     0.052 S 
ATOM      3  O   UNL     1       2.934  -0.302 -25.175  1.00  0.00    -0.255 OA
BRANCH   2   4
ATOM      4  C   UNL     1       5.121  -1.409 -24.312  1.00  0.00     0.070 C 
ATOM      5  C   UNL     1       4.567  -2.132 -23.327  1.00  0.00    -0.021 C 
ATOM      6  C   UNL     1       5.266  -2.474 -22.052  1.00  0.00     0.036 C 
ENDBRANCH   2   4
ENDBRANCH   1   2
BRANCH   1   7
ATOM      7  C   UNL     1       6.033  -0.171 -27.635  1.00  0.00     0.240 C 
BRANCH   7   8
ATOM      8  C   UNL     1       5.854   0.819 -28.815  1.00  0.00     0.100 C 
ATOM      9  O   UNL     1       6.408   1.928 -28.513  1.00  0.00    -0.544 OA
ATOM     10  O   UNL     1       5.314   0.390 -29.853  1.00  0.00    -0.544 OA
ENDBRANCH   7   8
BRANCH   7  11
ATOM     11  N   UNL     1       7.509  -0.116 -27.210  1.00  0.00    -0.350 N 
ATOM     12  H   UNL     1       7.660  -1.125 -26.940  1.00  0.00     0.345 HD
ATOM     13  H   UNL     1       7.629   0.393 -26.332  1.00  0.00     0.345 HD
ATOM     14  H   UNL     1       8.188   0.137 -27.927  1.00  0.00     0.345 HD
ENDBRANCH   7  11
ENDBRANCH   1   7
TORSDOF 5
ENDMDL
MODEL 5
REMARK VINA RESULT:      -5.3     14.537     16.102
REMARK SMILES C/C=C/[S@@](=O)C[C@H]([NH3+])C(=O)[O-]
REMARK SMILES IDX 6 1 4 2 5 3 3 4 2 5 1 6 7 7 9 8 10 9 11 10 8 11
REMARK H PARENT 8 12 8 13 8 14
ROOT
ATOM      1  C   UNL     1       6.919  -1.167 -19.214  1.00  0.00     0.181 C 
ENDROOT
BRANCH   1   2
ATOM      2  S   UNL     1       6.349  -2.671 -20.073  1.00  0.00     0.052 S 
ATOM      3  O   UNL     1       7.602  -3.374 -20.512  1.00  0.00    -0.255 OA
BRANCH   2   4
ATOM      4  C   UNL     1       5.740  -1.901 -21.568  1.00  0.00     0.070 C 
ATOM      5  C   UNL     1       4.913  -2.607 -22.354  1.00  0.00    -0.021 C 
ATOM      6  C   UNL     1       4.377  -2.112 -23.657  1.00  0.00     0.036 C 
ENDBRANCH   2   4
ENDBRANCH   1   2
BRANCH   1   7
ATOM      7  C   UNL     1       7.255  -1.359 -17.746  1.00  0.00     0.240 C 
BRANCH   7   8
ATOM      8  C   UNL     1       7.845  -0.044 -17.174  1.00  0.00     0.100 C 
ATOM      9  O   UNL     1       9.114  -0.154 -17.106  1.00  0.00    -0.544 OA
ATOM     10  O   UNL     1       7.057   0.899 -16.962  1.00  0.00    -0.544 OA
ENDBRANCH   7   8
BRANCH   7  11
ATOM     11  N   UNL     1       5.954  -1.649 -16.979  1.00  0.00    -0.350 N 
ATOM     12  H   UNL     1       6.313  -2.337 -16.264  1.00  0.00     0.345 HD
ATOM     13  H   UNL     1       5.301  -2.200 -17.542  1.00  0.00     0.345 HD
ATOM     14  H   UNL     1       5.518  -0.866 -16.494  1.00  0.00     0.345 HD
ENDBRANCH   7  11
ENDBRANCH   1   7
TORSDOF 5
ENDMDL
MODEL 6
REMARK VINA RESULT:      -4.7     11.980     13.066
REMARK SMILES C/C=C/[S@@](=O)C[C@H]([NH3+])C(=O)[O-]
REMARK SMILES IDX 6 1 4 2 5 3 3 4 2 5 1 6 7 7 9 8 10 9 11 10 8 11
REMARK H PARENT 8 12 8 13 8 14
ROOT
ATOM      1  C   UNL     1       5.289  -1.405 -24.182  1.00  0.00     0.181 C 
ENDROOT
BRANCH   1   2
ATOM      2  S   UNL     1       4.211  -0.665 -25.453  1.00  0.00     0.052 S 
ATOM      3  O   UNL     1       3.794  -1.810 -26.332  1.00  0.00    -0.255 OA
BRANCH   2   4
ATOM      4  C   UNL     1       5.469   0.175 -26.405  1.00  0.00     0.070 C 
ATOM      5  C   UNL     1       5.468   0.017 -27.737  1.00  0.00    -0.021 C 
ATOM      6  C   UNL     1       6.493   0.611 -28.647  1.00  0.00     0.036 C 
ENDBRANCH   2   4
ENDBRANCH   1   2
BRANCH   1   7
ATOM      7  C   UNL     1       4.620  -2.448 -23.305  1.00  0.00     0.240 C 
BRANCH   7   8
ATOM      8  C   UNL     1       5.235  -2.400 -21.883  1.00  0.00     0.100 C 
ATOM      9  O   UNL     1       5.010  -3.511 -21.296  1.00  0.00    -0.544 OA
ATOM     10  O   UNL     1       5.894  -1.389 -21.571  1.00  0.00    -0.544 OA
ENDBRANCH   7   8
BRANCH   7  11
ATOM     11  N   UNL     1       3.130  -2.093 -23.172  1.00  0.00    -0.350 N 
ATOM     12  H   UNL     1       3.196  -1.041 -23.113  1.00  0.00     0.345 HD
ATOM     13  H   UNL     1       2.759  -2.366 -22.259  1.00  0.00     0.345 HD
ATOM     14  H   UNL     1       2.523  -2.342 -23.951  1.00  0.00     0.345 HD
ENDBRANCH   7  11
ENDBRANCH   1   7
TORSDOF 5
ENDMDL
MODEL 7
REMARK VINA RESULT:      -4.7     17.732     19.401
REMARK SMILES C/C=C/[S@@](=O)C[C@H]([NH3+])C(=O)[O-]
REMARK SMILES IDX 6 1 4 2 5 3 3 4 2 5 1 6 7 7 9 8 10 9 11 10 8 11
REMARK H PARENT 8 12 8 13 8 14
ROOT
ATOM      1  C   UNL     1       9.383  -0.564 -16.847  1.00  0.00     0.181 C 
ENDROOT
BRANCH   1   2
ATOM      2  S   UNL     1       7.675  -0.082 -17.266  1.00  0.00     0.052 S 
ATOM      3  O   UNL     1       6.798  -0.968 -16.428  1.00  0.00    -0.255 OA
BRANCH   2   4
ATOM      4  C   UNL     1       7.591  -0.810 -18.897  1.00  0.00     0.070 C 
ATOM      5  C   UNL     1       6.529  -1.572 -19.198  1.00  0.00    -0.021 C 
ATOM      6  C   UNL     1       6.359  -2.287 -20.498  1.00  0.00     0.036 C 
ENDBRANCH   2   4
ENDBRANCH   1   2
BRANCH   1   7
ATOM      7  C   UNL     1       9.874  -0.066 -15.500  1.00  0.00     0.240 C 
BRANCH   7   8
ATOM      8  C   UNL     1      11.108   0.850 -15.706  1.00  0.00     0.100 C 
ATOM      9  O   UNL     1      12.160   0.129 -15.737  1.00  0.00    -0.544 OA
ATOM     10  O   UNL     1      10.901   2.066 -15.890  1.00  0.00    -0.544 OA
ENDBRANCH   7   8
BRANCH   7  11
ATOM     11  N   UNL     1       8.770   0.790 -14.861  1.00  0.00    -0.350 N 
ATOM     12  H   UNL     1       8.567   1.453 -15.657  1.00  0.00     0.345 HD
ATOM     13  H   UNL     1       9.142   1.396 -14.127  1.00  0.00     0.345 HD
ATOM     14  H   UNL     1       7.907   0.314 -14.601  1.00  0.00     0.345 HD
ENDBRANCH   7  11
ENDBRANCH   1   7
TORSDOF 5
ENDMDL
MODEL 8
REMARK VINA RESULT:      -4.6      3.973      5.430
REMARK SMILES C/C=C/[S@@](=O)C[C@H]([NH3+])C(=O)[O-]
REMARK SMILES IDX 6 1 4 2 5 3 3 4 2 5 1 6 7 7 9 8 10 9 11 10 8 11
REMARK H PARENT 8 12 8 13 8 14
ROOT
ATOM      1  C   UNL     1      -0.501 -10.470 -25.908  1.00  0.00     0.181 C 
ENDROOT
BRANCH   1   2
ATOM      2  S   UNL     1      -0.892  -9.507 -27.406  1.00  0.00     0.052 S 
ATOM      3  O   UNL     1      -0.081  -8.248 -27.289  1.00  0.00    -0.255 OA
BRANCH   2   4
ATOM      4  C   UNL     1      -2.547  -8.997 -26.964  1.00  0.00     0.070 C 
ATOM      5  C   UNL     1      -3.570  -9.794 -27.307  1.00  0.00    -0.021 C 
ATOM      6  C   UNL     1      -5.005  -9.464 -27.053  1.00  0.00     0.036 C 
ENDBRANCH   2   4
ENDBRANCH   1   2
BRANCH   1   7
ATOM      7  C   UNL     1       0.514 -11.580 -26.109  1.00  0.00     0.240 C 
BRANCH   7   8
ATOM      8  C   UNL     1       1.023 -12.073 -24.730  1.00  0.00     0.100 C 
ATOM      9  O   UNL     1       0.670 -13.287 -24.567  1.00  0.00    -0.544 OA
ATOM     10  O   UNL     1       1.734 -11.294 -24.064  1.00  0.00    -0.544 OA
ENDBRANCH   7   8
BRANCH   7  11
ATOM     11  N   UNL     1      -0.187 -12.768 -26.789  1.00  0.00    -0.350 N 
ATOM     12  H   UNL     1      -0.068 -12.497 -27.802  1.00  0.00     0.345 HD
ATOM     13  H   UNL     1      -1.199 -12.739 -26.646  1.00  0.00     0.345 HD
ATOM     14  H   UNL     1       0.221 -13.691 -26.645  1.00  0.00     0.345 HD
ENDBRANCH   7  11
ENDBRANCH   1   7
TORSDOF 5
ENDMDL
MODEL 9
REMARK VINA RESULT:      -4.5     11.408     12.462
REMARK SMILES C/C=C/[S@@](=O)C[C@H]([NH3+])C(=O)[O-]
REMARK SMILES IDX 6 1 4 2 5 3 3 4 2 5 1 6 7 7 9 8 10 9 11 10 8 11
REMARK H PARENT 8 12 8 13 8 14
ROOT
ATOM      1  C   UNL     1      -8.682  -0.935 -32.563  1.00  0.00     0.181 C 
ENDROOT
BRANCH   1   2
ATOM      2  S   UNL     1      -7.695  -0.677 -31.051  1.00  0.00     0.052 S 
ATOM      3  O   UNL     1      -6.269  -0.606 -31.518  1.00  0.00    -0.255 OA
BRANCH   2   4
ATOM      4  C   UNL     1      -7.841  -2.320 -30.360  1.00  0.00     0.070 C 
ATOM      5  C   UNL     1      -8.917  -3.052 -30.686  1.00  0.00    -0.021 C 
ATOM      6  C   UNL     1      -9.195  -4.413 -30.137  1.00  0.00     0.036 C 
ENDBRANCH   2   4
ENDBRANCH   1   2
BRANCH   1   7
ATOM      7  C   UNL     1      -8.975   0.325 -33.356  1.00  0.00     0.240 C 
BRANCH   7   8
ATOM      8  C   UNL     1     -10.472   0.697 -33.202  1.00  0.00     0.100 C 
ATOM      9  O   UNL     1     -10.609   1.951 -33.392  1.00  0.00    -0.544 OA
ATOM     10  O   UNL     1     -11.284  -0.231 -33.017  1.00  0.00    -0.544 OA
ENDBRANCH   7   8
BRANCH   7  11
ATOM     11  N   UNL     1      -8.152   1.480 -32.764  1.00  0.00    -0.350 N 
ATOM     12  H   UNL     1      -7.743   1.000 -31.918  1.00  0.00     0.345 HD
ATOM     13  H   UNL     1      -8.754   2.205 -32.367  1.00  0.00     0.345 HD
ATOM     14  H   UNL     1      -7.391   1.847 -33.335  1.00  0.00     0.345 HD
ENDBRANCH   7  11
ENDBRANCH   1   7
TORSDOF 5
ENDMDL
MODEL 10
REMARK VINA RESULT:      -4.5     15.790     17.267
REMARK SMILES C/C=C/[S@@](=O)C[C@H]([NH3+])C(=O)[O-]
REMARK SMILES IDX 6 1 4 2 5 3 3 4 2 5 1 6 7 7 9 8 10 9 11 10 8 11
REMARK H PARENT 8 12 8 13 8 14
ROOT
ATOM      1  C   UNL     1       7.573  -0.879 -18.675  1.00  0.00     0.181 C 
ENDROOT
BRANCH   1   2
ATOM      2  S   UNL     1       7.704  -0.269 -16.961  1.00  0.00     0.052 S 
ATOM      3  O   UNL     1       7.397   1.200 -17.041  1.00  0.00    -0.255 OA
BRANCH   2   4
ATOM      4  C   UNL     1       9.484  -0.329 -16.798  1.00  0.00     0.070 C 
ATOM      5  C   UNL     1      10.025   0.021 -15.622  1.00  0.00    -0.021 C 
ATOM      6  C   UNL     1      11.495   0.073 -15.364  1.00  0.00     0.036 C 
ENDBRANCH   2   4
ENDBRANCH   1   2
BRANCH   1   7
ATOM      7  C   UNL     1       6.352  -1.734 -18.956  1.00  0.00     0.240 C 
BRANCH   7   8
ATOM      8  C   UNL     1       6.489  -2.389 -20.356  1.00  0.00     0.100 C 
ATOM      9  O   UNL     1       5.815  -1.710 -21.199  1.00  0.00    -0.544 OA
ATOM     10  O   UNL     1       7.259  -3.364 -20.465  1.00  0.00    -0.544 OA
ENDBRANCH   7   8
BRANCH   7  11
ATOM     11  N   UNL     1       6.299  -2.871 -17.922  1.00  0.00    -0.350 N 
ATOM     12  H   UNL     1       7.223  -3.342 -18.121  1.00  0.00     0.345 HD
ATOM     13  H   UNL     1       5.606  -3.578 -18.176  1.00  0.00     0.345 HD
ATOM     14  H   UNL     1       6.271  -2.602 -16.940  1.00  0.00     0.345 HD
ENDBRANCH   7  11
ENDBRANCH   1   7
TORSDOF 5
ENDMDL
