MODEL 1
REMARK VINA RESULT:      -6.2      0.000      0.000
REMARK SMILES O=C(O)/C=C\c1ccc(O)c(O)c1
REMARK SMILES IDX 5 1 4 2 6 3 7 4 8 5 9 6 13 7 11 8 10 9 12 11 2 13 1 14 3 15
REMARK H PARENT 10 10 12 12 3 16
ROOT
ATOM      1  C   UNL     1      -2.182   0.041 -28.743  1.00  0.00     0.016 C 
ATOM      2  C   UNL     1      -2.134   0.212 -30.074  1.00  0.00     0.094 C 
ENDROOT
BRANCH   1   3
ATOM      3  C   UNL     1      -3.299  -0.445 -27.920  1.00  0.00    -0.021 A 
ATOM      4  C   UNL     1      -3.944  -1.667 -28.169  1.00  0.00     0.012 A 
ATOM      5  C   UNL     1      -4.978  -2.118 -27.339  1.00  0.00     0.051 A 
ATOM      6  C   UNL     1      -5.349  -1.352 -26.243  1.00  0.00     0.157 A 
ATOM      7  C   UNL     1      -3.675   0.305 -26.796  1.00  0.00     0.058 A 
ATOM      8  C   UNL     1      -4.696  -0.153 -25.973  1.00  0.00     0.157 A 
BRANCH   6   9
ATOM      9  O   UNL     1      -6.350  -1.737 -25.396  1.00  0.00    -0.504 OA
ATOM     10  H   UNL     1      -7.087  -1.111 -25.500  1.00  0.00     0.293 HD
ENDBRANCH   6   9
BRANCH   8  11
ATOM     11  O   UNL     1      -5.058   0.589 -24.885  1.00  0.00    -0.504 OA
ATOM     12  H   UNL     1      -4.900  -0.004 -24.124  1.00  0.00     0.293 HD
ENDBRANCH   8  11
ENDBRANCH   1   3
BRANCH   2  13
ATOM     13  C   UNL     1      -3.252  -0.009 -31.014  1.00  0.00     0.328 C 
ATOM     14  O   UNL     1      -4.320   0.571 -30.994  1.00  0.00    -0.247 OA
BRANCH  13  15
ATOM     15  O   UNL     1      -2.936  -0.955 -31.922  1.00  0.00    -0.478 OA
ATOM     16  H   UNL     1      -2.284  -1.613 -31.619  1.00  0.00     0.297 HD
ENDBRANCH  13  15
ENDBRANCH   2  13
TORSDOF 5
ENDMDL
MODEL 2
REMARK VINA RESULT:      -6.2      5.016      6.437
REMARK SMILES O=C(O)/C=C\c1ccc(O)c(O)c1
REMARK SMILES IDX 5 1 4 2 6 3 7 4 8 5 9 6 13 7 11 8 10 9 12 11 2 13 1 14 3 15
REMARK H PARENT 10 10 12 12 3 16
ROOT
ATOM      1  C   UNL     1      -6.295   2.120 -31.314  1.00  0.00     0.016 C 
ATOM      2  C   UNL     1      -5.170   1.483 -30.951  1.00  0.00     0.094 C 
ENDROOT
BRANCH   1   3
ATOM      3  C   UNL     1      -7.482   1.575 -31.989  1.00  0.00    -0.021 A 
ATOM      4  C   UNL     1      -7.472   1.191 -33.340  1.00  0.00     0.012 A 
ATOM      5  C   UNL     1      -8.610   0.638 -33.939  1.00  0.00     0.051 A 
ATOM      6  C   UNL     1      -9.754   0.449 -33.175  1.00  0.00     0.157 A 
ATOM      7  C   UNL     1      -8.640   1.358 -31.229  1.00  0.00     0.058 A 
ATOM      8  C   UNL     1      -9.762   0.801 -31.829  1.00  0.00     0.157 A 
BRANCH   6   9
ATOM      9  O   UNL     1     -10.895  -0.086 -33.701  1.00  0.00    -0.504 OA
ATOM     10  H   UNL     1     -11.603   0.576 -33.614  1.00  0.00     0.293 HD
ENDBRANCH   6   9
BRANCH   8  11
ATOM     11  O   UNL     1     -10.887   0.599 -31.080  1.00  0.00    -0.504 OA
ATOM     12  H   UNL     1     -10.682  -0.192 -30.544  1.00  0.00     0.293 HD
ENDBRANCH   8  11
ENDBRANCH   1   3
BRANCH   2  13
ATOM     13  C   UNL     1      -4.859   0.063 -31.212  1.00  0.00     0.328 C 
ATOM     14  O   UNL     1      -5.566  -0.883 -30.920  1.00  0.00    -0.247 OA
BRANCH  13  15
ATOM     15  O   UNL     1      -3.668  -0.062 -31.833  1.00  0.00    -0.478 OA
ATOM     16  H   UNL     1      -3.435   0.675 -32.427  1.00  0.00     0.297 HD
ENDBRANCH  13  15
ENDBRANCH   2  13
TORSDOF 5
ENDMDL
MODEL 3
REMARK VINA RESULT:      -6.0      5.391      6.441
REMARK SMILES O=C(O)/C=C\c1ccc(O)c(O)c1
REMARK SMILES IDX 5 1 4 2 6 3 7 4 8 5 9 6 13 7 11 8 10 9 12 11 2 13 1 14 3 15
REMARK H PARENT 10 10 12 12 3 16
ROOT
ATOM      1  C   UNL     1      -8.171   0.563 -33.585  1.00  0.00     0.016 C 
ATOM      2  C   UNL     1      -9.435   0.560 -34.037  1.00  0.00     0.094 C 
ENDROOT
BRANCH   1   3
ATOM      3  C   UNL     1      -7.692   0.607 -32.196  1.00  0.00    -0.021 A 
ATOM      4  C   UNL     1      -7.589   1.806 -31.471  1.00  0.00     0.012 A 
ATOM      5  C   UNL     1      -7.168   1.806 -30.137  1.00  0.00     0.051 A 
ATOM      6  C   UNL     1      -6.871   0.599 -29.520  1.00  0.00     0.157 A 
ATOM      7  C   UNL     1      -7.406  -0.603 -31.549  1.00  0.00     0.058 A 
ATOM      8  C   UNL     1      -6.997  -0.595 -30.222  1.00  0.00     0.157 A 
BRANCH   6   9
ATOM      9  O   UNL     1      -6.454   0.533 -28.220  1.00  0.00    -0.504 OA
ATOM     10  H   UNL     1      -6.237   1.436 -27.930  1.00  0.00     0.293 HD
ENDBRANCH   6   9
BRANCH   8  11
ATOM     11  O   UNL     1      -6.715  -1.781 -29.604  1.00  0.00    -0.504 OA
ATOM     12  H   UNL     1      -7.498  -2.339 -29.782  1.00  0.00     0.293 HD
ENDBRANCH   8  11
ENDBRANCH   1   3
BRANCH   2  13
ATOM     13  C   UNL     1     -10.650   0.661 -33.204  1.00  0.00     0.328 C 
ATOM     14  O   UNL     1     -11.349  -0.270 -32.854  1.00  0.00    -0.247 OA
BRANCH  13  15
ATOM     15  O   UNL     1     -10.895   1.944 -32.865  1.00  0.00    -0.478 OA
ATOM     16  H   UNL     1     -10.149   2.407 -32.444  1.00  0.00     0.297 HD
ENDBRANCH  13  15
ENDBRANCH   2  13
TORSDOF 5
ENDMDL
MODEL 4
REMARK VINA RESULT:      -6.0      5.282      6.465
REMARK SMILES O=C(O)/C=C\c1ccc(O)c(O)c1
REMARK SMILES IDX 5 1 4 2 6 3 7 4 8 5 9 6 13 7 11 8 10 9 12 11 2 13 1 14 3 15
REMARK H PARENT 10 10 12 12 3 16
ROOT
ATOM      1  C   UNL     1      -8.233   0.517 -33.745  1.00  0.00     0.016 C 
ATOM      2  C   UNL     1      -9.527   0.518 -34.102  1.00  0.00     0.094 C 
ENDROOT
BRANCH   1   3
ATOM      3  C   UNL     1      -7.652   0.581 -32.396  1.00  0.00    -0.021 A 
ATOM      4  C   UNL     1      -7.463  -0.561 -31.601  1.00  0.00     0.012 A 
ATOM      5  C   UNL     1      -6.870  -0.467 -30.336  1.00  0.00     0.051 A 
ATOM      6  C   UNL     1      -6.443   0.771 -29.878  1.00  0.00     0.157 A 
ATOM      7  C   UNL     1      -7.196   1.820 -31.924  1.00  0.00     0.058 A 
ATOM      8  C   UNL     1      -6.600   1.903 -30.672  1.00  0.00     0.157 A 
BRANCH   6   9
ATOM      9  O   UNL     1      -5.857   0.927 -28.654  1.00  0.00    -0.504 OA
ATOM     10  H   UNL     1      -5.912   0.077 -28.185  1.00  0.00     0.293 HD
ENDBRANCH   6   9
BRANCH   8  11
ATOM     11  O   UNL     1      -6.165   3.116 -30.220  1.00  0.00    -0.504 OA
ATOM     12  H   UNL     1      -6.959   3.525 -29.820  1.00  0.00     0.293 HD
ENDBRANCH   8  11
ENDBRANCH   1   3
BRANCH   2  13
ATOM     13  C   UNL     1     -10.676   0.642 -33.182  1.00  0.00     0.328 C 
ATOM     14  O   UNL     1     -11.358  -0.277 -32.771  1.00  0.00    -0.247 OA
BRANCH  13  15
ATOM     15  O   UNL     1     -10.882   1.931 -32.842  1.00  0.00    -0.478 OA
ATOM     16  H   UNL     1     -10.768   2.128 -31.894  1.00  0.00     0.297 HD
ENDBRANCH  13  15
ENDBRANCH   2  13
TORSDOF 5
ENDMDL
MODEL 5
REMARK VINA RESULT:      -5.8      6.029      6.925
REMARK SMILES O=C(O)/C=C\c1ccc(O)c(O)c1
REMARK SMILES IDX 5 1 4 2 6 3 7 4 8 5 9 6 13 7 11 8 10 9 12 11 2 13 1 14 3 15
REMARK H PARENT 10 10 12 12 3 16
ROOT
ATOM      1  C   UNL     1      -8.268   0.003 -32.469  1.00  0.00     0.016 C 
ATOM      2  C   UNL     1      -9.069   0.698 -33.291  1.00  0.00     0.094 C 
ENDROOT
BRANCH   1   3
ATOM      3  C   UNL     1      -8.638  -0.853 -31.332  1.00  0.00    -0.021 A 
ATOM      4  C   UNL     1      -8.836  -0.345 -30.038  1.00  0.00     0.012 A 
ATOM      5  C   UNL     1      -9.227  -1.184 -28.988  1.00  0.00     0.051 A 
ATOM      6  C   UNL     1      -9.444  -2.531 -29.241  1.00  0.00     0.157 A 
ATOM      7  C   UNL     1      -8.881  -2.213 -31.572  1.00  0.00     0.058 A 
ATOM      8  C   UNL     1      -9.277  -3.037 -30.527  1.00  0.00     0.157 A 
BRANCH   6   9
ATOM      9  O   UNL     1      -9.827  -3.400 -28.259  1.00  0.00    -0.504 OA
ATOM     10  H   UNL     1      -9.445  -4.271 -28.464  1.00  0.00     0.293 HD
ENDBRANCH   6   9
BRANCH   8  11
ATOM     11  O   UNL     1      -9.505  -4.361 -30.771  1.00  0.00    -0.504 OA
ATOM     12  H   UNL     1      -9.927  -4.376 -31.654  1.00  0.00     0.293 HD
ENDBRANCH   8  11
ENDBRANCH   1   3
BRANCH   2  13
ATOM     13  C   UNL     1     -10.539   0.793 -33.187  1.00  0.00     0.328 C 
ATOM     14  O   UNL     1     -11.314  -0.143 -33.216  1.00  0.00    -0.247 OA
BRANCH  13  15
ATOM     15  O   UNL     1     -10.929   2.078 -33.050  1.00  0.00    -0.478 OA
ATOM     16  H   UNL     1     -10.832   2.442 -32.151  1.00  0.00     0.297 HD
ENDBRANCH  13  15
ENDBRANCH   2  13
TORSDOF 5
ENDMDL
MODEL 6
REMARK VINA RESULT:      -5.8     14.878     16.040
REMARK SMILES O=C(O)/C=C\c1ccc(O)c(O)c1
REMARK SMILES IDX 5 1 4 2 6 3 7 4 8 5 9 6 13 7 11 8 10 9 12 11 2 13 1 14 3 15
REMARK H PARENT 10 10 12 12 3 16
ROOT
ATOM      1  C   UNL     1       6.258  -2.224 -17.090  1.00  0.00     0.016 C 
ATOM      2  C   UNL     1       5.972  -2.744 -18.295  1.00  0.00     0.094 C 
ENDROOT
BRANCH   1   3
ATOM      3  C   UNL     1       7.177  -1.126 -16.760  1.00  0.00    -0.021 A 
ATOM      4  C   UNL     1       8.504  -1.349 -16.355  1.00  0.00     0.012 A 
ATOM      5  C   UNL     1       9.364  -0.277 -16.086  1.00  0.00     0.051 A 
ATOM      6  C   UNL     1       8.900   1.021 -16.247  1.00  0.00     0.157 A 
ATOM      7  C   UNL     1       6.733   0.193 -16.935  1.00  0.00     0.058 A 
ATOM      8  C   UNL     1       7.595   1.250 -16.675  1.00  0.00     0.157 A 
BRANCH   6   9
ATOM      9  O   UNL     1       9.690   2.108 -16.001  1.00  0.00    -0.504 OA
ATOM     10  H   UNL     1       9.224   2.680 -15.367  1.00  0.00     0.293 HD
ENDBRANCH   6   9
BRANCH   8  11
ATOM     11  O   UNL     1       7.150   2.530 -16.843  1.00  0.00    -0.504 OA
ATOM     12  H   UNL     1       7.425   2.992 -16.026  1.00  0.00     0.293 HD
ENDBRANCH   8  11
ENDBRANCH   1   3
BRANCH   2  13
ATOM     13  C   UNL     1       6.585  -2.343 -19.576  1.00  0.00     0.328 C 
ATOM     14  O   UNL     1       6.353  -1.315 -20.183  1.00  0.00    -0.247 OA
BRANCH  13  15
ATOM     15  O   UNL     1       7.460  -3.277 -20.004  1.00  0.00    -0.478 OA
ATOM     16  H   UNL     1       7.994  -3.017 -20.776  1.00  0.00     0.297 HD
ENDBRANCH  13  15
ENDBRANCH   2  13
TORSDOF 5
ENDMDL
MODEL 7
REMARK VINA RESULT:      -5.8      5.450      6.866
REMARK SMILES O=C(O)/C=C\c1ccc(O)c(O)c1
REMARK SMILES IDX 5 1 4 2 6 3 7 4 8 5 9 6 13 7 11 8 10 9 12 11 2 13 1 14 3 15
REMARK H PARENT 10 10 12 12 3 16
ROOT
ATOM      1  C   UNL     1      -6.302   1.320 -32.288  1.00  0.00     0.016 C 
ATOM      2  C   UNL     1      -5.648   1.693 -31.177  1.00  0.00     0.094 C 
ENDROOT
BRANCH   1   3
ATOM      3  C   UNL     1      -7.667   0.790 -32.416  1.00  0.00    -0.021 A 
ATOM      4  C   UNL     1      -7.982  -0.553 -32.156  1.00  0.00     0.012 A 
ATOM      5  C   UNL     1      -9.301  -1.014 -32.249  1.00  0.00     0.051 A 
ATOM      6  C   UNL     1     -10.309  -0.120 -32.581  1.00  0.00     0.157 A 
ATOM      7  C   UNL     1      -8.702   1.682 -32.732  1.00  0.00     0.058 A 
ATOM      8  C   UNL     1     -10.009   1.218 -32.814  1.00  0.00     0.157 A 
BRANCH   6   9
ATOM      9  O   UNL     1     -11.615  -0.509 -32.688  1.00  0.00    -0.504 OA
ATOM     10  H   UNL     1     -12.159   0.130 -32.195  1.00  0.00     0.293 HD
ENDBRANCH   6   9
BRANCH   8  11
ATOM     11  O   UNL     1     -11.009   2.095 -33.127  1.00  0.00    -0.504 OA
ATOM     12  H   UNL     1     -11.615   2.055 -32.362  1.00  0.00     0.293 HD
ENDBRANCH   8  11
ENDBRANCH   1   3
BRANCH   2  13
ATOM     13  C   UNL     1      -6.164   1.593 -29.797  1.00  0.00     0.328 C 
ATOM     14  O   UNL     1      -5.911   0.702 -29.008  1.00  0.00    -0.247 OA
BRANCH  13  15
ATOM     15  O   UNL     1      -6.968   2.636 -29.507  1.00  0.00    -0.478 OA
ATOM     16  H   UNL     1      -7.529   2.939 -30.244  1.00  0.00     0.297 HD
ENDBRANCH  13  15
ENDBRANCH   2  13
TORSDOF 5
ENDMDL
MODEL 8
REMARK VINA RESULT:      -5.8      5.114      6.770
REMARK SMILES O=C(O)/C=C\c1ccc(O)c(O)c1
REMARK SMILES IDX 5 1 4 2 6 3 7 4 8 5 9 6 13 7 11 8 10 9 12 11 2 13 1 14 3 15
REMARK H PARENT 10 10 12 12 3 16
ROOT
ATOM      1  C   UNL     1      -9.542  -0.071 -30.647  1.00  0.00     0.016 C 
ATOM      2  C   UNL     1     -10.599  -0.069 -31.475  1.00  0.00     0.094 C 
ENDROOT
BRANCH   1   3
ATOM      3  C   UNL     1      -8.189   0.453 -30.884  1.00  0.00    -0.021 A 
ATOM      4  C   UNL     1      -7.922   1.826 -31.009  1.00  0.00     0.012 A 
ATOM      5  C   UNL     1      -6.615   2.291 -31.194  1.00  0.00     0.051 A 
ATOM      6  C   UNL     1      -5.570   1.379 -31.231  1.00  0.00     0.157 A 
ATOM      7  C   UNL     1      -7.117  -0.451 -30.904  1.00  0.00     0.058 A 
ATOM      8  C   UNL     1      -5.822   0.019 -31.079  1.00  0.00     0.157 A 
BRANCH   6   9
ATOM      9  O   UNL     1      -4.273   1.771 -31.408  1.00  0.00    -0.504 OA
ATOM     10  H   UNL     1      -4.246   2.743 -31.367  1.00  0.00     0.293 HD
ENDBRANCH   6   9
BRANCH   8  11
ATOM     11  O   UNL     1      -4.787  -0.871 -31.103  1.00  0.00    -0.504 OA
ATOM     12  H   UNL     1      -5.118  -1.613 -31.648  1.00  0.00     0.293 HD
ENDBRANCH   8  11
ENDBRANCH   1   3
BRANCH   2  13
ATOM     13  C   UNL     1     -10.605   0.428 -32.865  1.00  0.00     0.328 C 
ATOM     14  O   UNL     1     -10.363  -0.234 -33.856  1.00  0.00    -0.247 OA
BRANCH  13  15
ATOM     15  O   UNL     1     -10.923   1.739 -32.905  1.00  0.00    -0.478 OA
ATOM     16  H   UNL     1     -11.713   1.953 -33.435  1.00  0.00     0.297 HD
ENDBRANCH  13  15
ENDBRANCH   2  13
TORSDOF 5
ENDMDL
MODEL 9
REMARK VINA RESULT:      -5.8     15.431     16.625
REMARK SMILES O=C(O)/C=C\c1ccc(O)c(O)c1
REMARK SMILES IDX 5 1 4 2 6 3 7 4 8 5 9 6 13 7 11 8 10 9 12 11 2 13 1 14 3 15
REMARK H PARENT 10 10 12 12 3 16
ROOT
ATOM      1  C   UNL     1       6.336  -1.844 -16.788  1.00  0.00     0.016 C 
ATOM      2  C   UNL     1       5.931  -2.471 -17.904  1.00  0.00     0.094 C 
ENDROOT
BRANCH   1   3
ATOM      3  C   UNL     1       7.378  -0.817 -16.639  1.00  0.00    -0.021 A 
ATOM      4  C   UNL     1       7.159   0.532 -16.963  1.00  0.00     0.012 A 
ATOM      5  C   UNL     1       8.161   1.490 -16.770  1.00  0.00     0.051 A 
ATOM      6  C   UNL     1       9.378   1.098 -16.229  1.00  0.00     0.157 A 
ATOM      7  C   UNL     1       8.607  -1.190 -16.076  1.00  0.00     0.058 A 
ATOM      8  C   UNL     1       9.593  -0.231 -15.880  1.00  0.00     0.157 A 
BRANCH   6   9
ATOM      9  O   UNL     1      10.395   1.986 -16.017  1.00  0.00    -0.504 OA
ATOM     10  H   UNL     1      10.231   2.431 -15.168  1.00  0.00     0.293 HD
ENDBRANCH   6   9
BRANCH   8  11
ATOM     11  O   UNL     1      10.788  -0.607 -15.336  1.00  0.00    -0.504 OA
ATOM     12  H   UNL     1      10.856  -0.082 -14.513  1.00  0.00     0.293 HD
ENDBRANCH   8  11
ENDBRANCH   1   3
BRANCH   2  13
ATOM     13  C   UNL     1       6.505  -2.291 -19.252  1.00  0.00     0.328 C 
ATOM     14  O   UNL     1       6.472  -1.266 -19.907  1.00  0.00    -0.247 OA
BRANCH  13  15
ATOM     15  O   UNL     1       7.088  -3.429 -19.682  1.00  0.00    -0.478 OA
ATOM     16  H   UNL     1       8.020  -3.337 -19.951  1.00  0.00     0.297 HD
ENDBRANCH  13  15
ENDBRANCH   2  13
TORSDOF 5
ENDMDL
MODEL 10
REMARK VINA RESULT:      -5.6      3.735      5.527
REMARK SMILES O=C(O)/C=C\c1ccc(O)c(O)c1
REMARK SMILES IDX 5 1 4 2 6 3 7 4 8 5 9 6 13 7 11 8 10 9 12 11 2 13 1 14 3 15
REMARK H PARENT 10 10 12 12 3 16
ROOT
ATOM      1  C   UNL     1      -5.032   0.980 -30.305  1.00  0.00     0.016 C 
ATOM      2  C   UNL     1      -3.887   0.308 -30.109  1.00  0.00     0.094 C 
ENDROOT
BRANCH   1   3
ATOM      3  C   UNL     1      -6.154   0.643 -31.194  1.00  0.00    -0.021 A 
ATOM      4  C   UNL     1      -6.495   1.426 -32.309  1.00  0.00     0.012 A 
ATOM      5  C   UNL     1      -7.545   1.053 -33.156  1.00  0.00     0.051 A 
ATOM      6  C   UNL     1      -8.238  -0.122 -32.900  1.00  0.00     0.157 A 
ATOM      7  C   UNL     1      -6.854  -0.550 -30.963  1.00  0.00     0.058 A 
ATOM      8  C   UNL     1      -7.888  -0.918 -31.814  1.00  0.00     0.157 A 
BRANCH   6   9
ATOM      9  O   UNL     1      -9.271  -0.540 -33.690  1.00  0.00    -0.504 OA
ATOM     10  H   UNL     1      -9.851   0.224 -33.853  1.00  0.00     0.293 HD
ENDBRANCH   6   9
BRANCH   8  11
ATOM     11  O   UNL     1      -8.567  -2.079 -31.575  1.00  0.00    -0.504 OA
ATOM     12  H   UNL     1      -9.481  -1.890 -31.866  1.00  0.00     0.293 HD
ENDBRANCH   8  11
ENDBRANCH   1   3
BRANCH   2  13
ATOM     13  C   UNL     1      -3.477  -0.924 -30.812  1.00  0.00     0.328 C 
ATOM     14  O   UNL     1      -3.700  -2.061 -30.439  1.00  0.00    -0.247 OA
BRANCH  13  15
ATOM     15  O   UNL     1      -2.812  -0.632 -31.948  1.00  0.00    -0.478 OA
ATOM     16  H   UNL     1      -2.469  -1.404 -32.433  1.00  0.00     0.297 HD
ENDBRANCH  13  15
ENDBRANCH   2  13
TORSDOF 5
ENDMDL
