MODEL 1
REMARK VINA RESULT:      -5.6      0.000      0.000
REMARK SMILES C=CC[S@@](=O)C[C@H](N)C(=O)O
REMARK SMILES IDX 6 1 4 2 5 3 3 4 2 5 1 6 7 7 9 8 10 9 11 10 8 12
REMARK H PARENT 11 11 8 13 8 14
ROOT
ATOM      1  C   UNL     1      -3.705 -10.617 -27.040  1.00  0.00     0.136 C 
ENDROOT
BRANCH   1   2
ATOM      2  S   UNL     1      -2.743  -9.096 -27.359  1.00  0.00     0.027 S 
ATOM      3  O   UNL     1      -3.024  -8.687 -28.776  1.00  0.00    -0.259 OA
BRANCH   2   4
ATOM      4  C   UNL     1      -1.093  -9.884 -27.344  1.00  0.00     0.131 C 
BRANCH   4   5
ATOM      5  C   UNL     1      -0.560  -9.932 -25.945  1.00  0.00    -0.021 C 
ATOM      6  C   UNL     1       0.498 -10.656 -25.555  1.00  0.00     0.005 C 
ENDBRANCH   4   5
ENDBRANCH   2   4
ENDBRANCH   1   2
BRANCH   1   7
ATOM      7  C   UNL     1      -5.215 -10.372 -27.131  1.00  0.00     0.174 C 
BRANCH   7   8
ATOM      8  C   UNL     1      -6.006 -11.357 -26.255  1.00  0.00     0.321 C 
ATOM      9  O   UNL     1      -6.048 -11.353 -25.037  1.00  0.00    -0.251 OA
BRANCH   8  10
ATOM     10  O   UNL     1      -6.737 -12.228 -27.000  1.00  0.00    -0.480 OA
ATOM     11  H   UNL     1      -6.746 -12.019 -27.954  1.00  0.00     0.296 HD
ENDBRANCH   8  10
ENDBRANCH   7   8
BRANCH   7  12
ATOM     12  N   UNL     1      -5.544  -8.987 -26.715  1.00  0.00    -0.318 NA
ATOM     13  H   UNL     1      -4.729  -8.388 -26.886  1.00  0.00     0.119 HD
ATOM     14  H   UNL     1      -5.691  -8.930 -25.706  1.00  0.00     0.119 HD
ENDBRANCH   7  12
ENDBRANCH   1   7
TORSDOF 7
ENDMDL
MODEL 2
REMARK VINA RESULT:      -5.5      3.194      5.180
REMARK SMILES C=CC[S@@](=O)C[C@H](N)C(=O)O
REMARK SMILES IDX 6 1 4 2 5 3 3 4 2 5 1 6 7 7 9 8 10 9 11 10 8 12
REMARK H PARENT 11 11 8 13 8 14
ROOT
ATOM      1  C   UNL     1      -1.449  -9.284 -26.294  1.00  0.00     0.136 C 
ENDROOT
BRANCH   1   2
ATOM      2  S   UNL     1      -2.131  -9.633 -27.954  1.00  0.00     0.027 S 
ATOM      3  O   UNL     1      -2.675  -8.340 -28.486  1.00  0.00    -0.259 OA
BRANCH   2   4
ATOM      4  C   UNL     1      -3.559 -10.626 -27.390  1.00  0.00     0.131 C 
BRANCH   4   5
ATOM      5  C   UNL     1      -4.739  -9.735 -27.147  1.00  0.00    -0.021 C 
ATOM      6  C   UNL     1      -5.751 -10.018 -26.316  1.00  0.00     0.005 C 
ENDBRANCH   4   5
ENDBRANCH   2   4
ENDBRANCH   1   2
BRANCH   1   7
ATOM      7  C   UNL     1       0.068  -9.497 -26.240  1.00  0.00     0.174 C 
BRANCH   7   8
ATOM      8  C   UNL     1       0.428 -10.949 -25.886  1.00  0.00     0.321 C 
ATOM      9  O   UNL     1       0.179 -11.930 -26.566  1.00  0.00    -0.251 OA
BRANCH   8  10
ATOM     10  O   UNL     1       1.136 -11.031 -24.730  1.00  0.00    -0.480 OA
ATOM     11  H   UNL     1       0.589 -10.950 -23.925  1.00  0.00     0.296 HD
ENDBRANCH   8  10
ENDBRANCH   7   8
BRANCH   7  12
ATOM     12  N   UNL     1       0.691  -9.149 -27.540  1.00  0.00    -0.318 NA
ATOM     13  H   UNL     1       1.102  -8.212 -27.469  1.00  0.00     0.119 HD
ATOM     14  H   UNL     1      -0.014  -9.059 -28.274  1.00  0.00     0.119 HD
ENDBRANCH   7  12
ENDBRANCH   1   7
TORSDOF 7
ENDMDL
MODEL 3
REMARK VINA RESULT:      -5.0     16.037     17.788
REMARK SMILES C=CC[S@@](=O)C[C@H](N)C(=O)O
REMARK SMILES IDX 6 1 4 2 5 3 3 4 2 5 1 6 7 7 9 8 10 9 11 10 8 12
REMARK H PARENT 11 11 8 13 8 14
ROOT
ATOM      1  C   UNL     1       8.103  -0.540 -18.046  1.00  0.00     0.136 C 
ENDROOT
BRANCH   1   2
ATOM      2  S   UNL     1       6.396  -1.184 -18.156  1.00  0.00     0.027 S 
ATOM      3  O   UNL     1       6.176  -2.051 -16.950  1.00  0.00    -0.259 OA
BRANCH   2   4
ATOM      4  C   UNL     1       6.684  -2.300 -19.575  1.00  0.00     0.131 C 
BRANCH   4   5
ATOM      5  C   UNL     1       6.057  -1.730 -20.811  1.00  0.00    -0.021 C 
ATOM      6  C   UNL     1       5.455  -2.453 -21.766  1.00  0.00     0.005 C 
ENDBRANCH   4   5
ENDBRANCH   2   4
ENDBRANCH   1   2
BRANCH   1   7
ATOM      7  C   UNL     1       8.404   0.060 -16.668  1.00  0.00     0.174 C 
BRANCH   7   8
ATOM      8  C   UNL     1       9.368  -0.824 -15.860  1.00  0.00     0.321 C 
ATOM      9  O   UNL     1      10.515  -0.539 -15.560  1.00  0.00    -0.251 OA
BRANCH   8  10
ATOM     10  O   UNL     1       8.774  -1.972 -15.438  1.00  0.00    -0.480 OA
ATOM     11  H   UNL     1       8.234  -2.411 -16.123  1.00  0.00     0.296 HD
ENDBRANCH   8  10
ENDBRANCH   7   8
BRANCH   7  12
ATOM     12  N   UNL     1       8.994   1.414 -16.806  1.00  0.00    -0.318 NA
ATOM     13  H   UNL     1       8.373   2.092 -16.352  1.00  0.00     0.119 HD
ATOM     14  H   UNL     1       9.016   1.708 -17.784  1.00  0.00     0.119 HD
ENDBRANCH   7  12
ENDBRANCH   1   7
TORSDOF 7
ENDMDL
MODEL 4
REMARK VINA RESULT:      -4.7     11.319     13.037
REMARK SMILES C=CC[S@@](=O)C[C@H](N)C(=O)O
REMARK SMILES IDX 6 1 4 2 5 3 3 4 2 5 1 6 7 7 9 8 10 9 11 10 8 12
REMARK H PARENT 11 11 8 13 8 14
ROOT
ATOM      1  C   UNL     1      -5.780  -0.059 -31.186  1.00  0.00     0.136 C 
ENDROOT
BRANCH   1   2
ATOM      2  S   UNL     1      -6.907   0.813 -32.331  1.00  0.00     0.027 S 
ATOM      3  O   UNL     1      -7.321   2.087 -31.654  1.00  0.00    -0.259 OA
BRANCH   2   4
ATOM      4  C   UNL     1      -8.305  -0.355 -32.180  1.00  0.00     0.131 C 
BRANCH   4   5
ATOM      5  C   UNL     1      -9.101  -0.370 -33.449  1.00  0.00    -0.021 C 
ATOM      6  C   UNL     1     -10.177   0.393 -33.686  1.00  0.00     0.005 C 
ENDBRANCH   4   5
ENDBRANCH   2   4
ENDBRANCH   1   2
BRANCH   1   7
ATOM      7  C   UNL     1      -4.404   0.611 -31.111  1.00  0.00     0.174 C 
BRANCH   7   8
ATOM      8  C   UNL     1      -3.264  -0.419 -31.157  1.00  0.00     0.321 C 
ATOM      9  O   UNL     1      -3.388  -1.624 -31.024  1.00  0.00    -0.251 OA
BRANCH   8  10
ATOM     10  O   UNL     1      -2.066   0.159 -31.437  1.00  0.00    -0.480 OA
ATOM     11  H   UNL     1      -1.487  -0.389 -32.000  1.00  0.00     0.296 HD
ENDBRANCH   8  10
ENDBRANCH   7   8
BRANCH   7  12
ATOM     12  N   UNL     1      -4.231   1.572 -32.228  1.00  0.00    -0.318 NA
ATOM     13  H   UNL     1      -4.393   1.082 -33.114  1.00  0.00     0.119 HD
ATOM     14  H   UNL     1      -3.264   1.893 -32.291  1.00  0.00     0.119 HD
ENDBRANCH   7  12
ENDBRANCH   1   7
TORSDOF 7
ENDMDL
MODEL 5
REMARK VINA RESULT:      -4.7     16.873     18.755
REMARK SMILES C=CC[S@@](=O)C[C@H](N)C(=O)O
REMARK SMILES IDX 6 1 4 2 5 3 3 4 2 5 1 6 7 7 9 8 10 9 11 10 8 12
REMARK H PARENT 11 11 8 13 8 14
ROOT
ATOM      1  C   UNL     1       8.416  -0.824 -16.452  1.00  0.00     0.136 C 
ENDROOT
BRANCH   1   2
ATOM      2  S   UNL     1       6.818  -0.824 -17.339  1.00  0.00     0.027 S 
ATOM      3  O   UNL     1       6.107  -2.092 -16.964  1.00  0.00    -0.259 OA
BRANCH   2   4
ATOM      4  C   UNL     1       7.507  -1.070 -19.014  1.00  0.00     0.131 C 
BRANCH   4   5
ATOM      5  C   UNL     1       6.460  -1.638 -19.922  1.00  0.00    -0.021 C 
ATOM      6  C   UNL     1       6.505  -2.859 -20.471  1.00  0.00     0.005 C 
ENDBRANCH   4   5
ENDBRANCH   2   4
ENDBRANCH   1   2
BRANCH   1   7
ATOM      7  C   UNL     1       8.729   0.541 -15.830  1.00  0.00     0.174 C 
BRANCH   7   8
ATOM      8  C   UNL     1      10.218   0.898 -15.958  1.00  0.00     0.321 C 
ATOM      9  O   UNL     1      11.141   0.102 -15.994  1.00  0.00    -0.251 OA
BRANCH   8  10
ATOM     10  O   UNL     1      10.412   2.236 -16.100  1.00  0.00    -0.480 OA
ATOM     11  H   UNL     1       9.820   2.780 -15.546  1.00  0.00     0.296 HD
ENDBRANCH   8  10
ENDBRANCH   7   8
BRANCH   7  12
ATOM     12  N   UNL     1       7.921   1.605 -16.475  1.00  0.00    -0.318 NA
ATOM     13  H   UNL     1       6.953   1.532 -16.144  1.00  0.00     0.119 HD
ATOM     14  H   UNL     1       7.853   1.456 -17.483  1.00  0.00     0.119 HD
ENDBRANCH   7  12
ENDBRANCH   1   7
TORSDOF 7
ENDMDL
MODEL 6
REMARK VINA RESULT:      -4.5     11.437     12.668
REMARK SMILES C=CC[S@@](=O)C[C@H](N)C(=O)O
REMARK SMILES IDX 6 1 4 2 5 3 3 4 2 5 1 6 7 7 9 8 10 9 11 10 8 12
REMARK H PARENT 11 11 8 13 8 14
ROOT
ATOM      1  C   UNL     1      -8.526  -0.651 -32.274  1.00  0.00     0.136 C 
ENDROOT
BRANCH   1   2
ATOM      2  S   UNL     1      -7.322  -0.142 -30.997  1.00  0.00     0.027 S 
ATOM      3  O   UNL     1      -6.036   0.171 -31.705  1.00  0.00    -0.259 OA
BRANCH   2   4
ATOM      4  C   UNL     1      -7.124  -1.787 -30.225  1.00  0.00     0.131 C 
BRANCH   4   5
ATOM      5  C   UNL     1      -8.244  -2.689 -30.646  1.00  0.00    -0.021 C 
ATOM      6  C   UNL     1      -8.340  -3.987 -30.328  1.00  0.00     0.005 C 
ENDBRANCH   4   5
ENDBRANCH   2   4
ENDBRANCH   1   2
BRANCH   1   7
ATOM      7  C   UNL     1      -8.960   0.523 -33.157  1.00  0.00     0.174 C 
BRANCH   7   8
ATOM      8  C   UNL     1     -10.490   0.657 -33.218  1.00  0.00     0.321 C 
ATOM      9  O   UNL     1     -11.279  -0.261 -33.368  1.00  0.00    -0.251 OA
BRANCH   8  10
ATOM     10  O   UNL     1     -10.899   1.936 -33.015  1.00  0.00    -0.480 OA
ATOM     11  H   UNL     1     -11.566   2.029 -32.309  1.00  0.00     0.296 HD
ENDBRANCH   8  10
ENDBRANCH   7   8
BRANCH   7  12
ATOM     12  N   UNL     1      -8.385   1.795 -32.653  1.00  0.00    -0.318 NA
ATOM     13  H   UNL     1      -8.448   1.803 -31.630  1.00  0.00     0.119 HD
ATOM     14  H   UNL     1      -8.947   2.595 -32.947  1.00  0.00     0.119 HD
ENDBRANCH   7  12
ENDBRANCH   1   7
TORSDOF 7
ENDMDL
MODEL 7
REMARK VINA RESULT:      -4.5     12.188     13.177
REMARK SMILES C=CC[S@@](=O)C[C@H](N)C(=O)O
REMARK SMILES IDX 6 1 4 2 5 3 3 4 2 5 1 6 7 7 9 8 10 9 11 10 8 12
REMARK H PARENT 11 11 8 13 8 14
ROOT
ATOM      1  C   UNL     1      -8.647  -0.973 -32.048  1.00  0.00     0.136 C 
ENDROOT
BRANCH   1   2
ATOM      2  S   UNL     1      -7.146  -0.028 -31.606  1.00  0.00     0.027 S 
ATOM      3  O   UNL     1      -6.174  -1.002 -31.005  1.00  0.00    -0.259 OA
BRANCH   2   4
ATOM      4  C   UNL     1      -7.888   0.913 -30.226  1.00  0.00     0.131 C 
BRANCH   4   5
ATOM      5  C   UNL     1      -7.068   2.133 -29.938  1.00  0.00    -0.021 C 
ATOM      6  C   UNL     1      -6.126   2.631 -30.750  1.00  0.00     0.005 C 
ENDBRANCH   4   5
ENDBRANCH   2   4
ENDBRANCH   1   2
BRANCH   1   7
ATOM      7  C   UNL     1      -9.329  -0.416 -33.302  1.00  0.00     0.174 C 
BRANCH   7   8
ATOM      8  C   UNL     1     -10.654   0.287 -32.966  1.00  0.00     0.321 C 
ATOM      9  O   UNL     1     -10.842   1.492 -32.971  1.00  0.00    -0.251 OA
BRANCH   8  10
ATOM     10  O   UNL     1     -11.653  -0.600 -32.718  1.00  0.00    -0.480 OA
ATOM     11  H   UNL     1     -11.765  -0.813 -31.772  1.00  0.00     0.296 HD
ENDBRANCH   8  10
ENDBRANCH   7   8
BRANCH   7  12
ATOM     12  N   UNL     1      -8.437   0.543 -33.998  1.00  0.00    -0.318 NA
ATOM     13  H   UNL     1      -8.986   1.364 -34.273  1.00  0.00     0.119 HD
ATOM     14  H   UNL     1      -8.100   0.158 -34.882  1.00  0.00     0.119 HD
ENDBRANCH   7  12
ENDBRANCH   1   7
TORSDOF 7
ENDMDL
MODEL 8
REMARK VINA RESULT:      -4.5     16.553     18.119
REMARK SMILES C=CC[S@@](=O)C[C@H](N)C(=O)O
REMARK SMILES IDX 6 1 4 2 5 3 3 4 2 5 1 6 7 7 9 8 10 9 11 10 8 12
REMARK H PARENT 11 11 8 13 8 14
ROOT
ATOM      1  C   UNL     1       7.211   0.183 -17.153  1.00  0.00     0.136 C 
ENDROOT
BRANCH   1   2
ATOM      2  S   UNL     1       8.851  -0.572 -16.869  1.00  0.00     0.027 S 
ATOM      3  O   UNL     1       8.714  -1.487 -15.687  1.00  0.00    -0.259 OA
BRANCH   2   4
ATOM      4  C   UNL     1       9.682   0.946 -16.280  1.00  0.00     0.131 C 
BRANCH   4   5
ATOM      5  C   UNL     1      10.834   0.589 -15.391  1.00  0.00    -0.021 C 
ATOM      6  C   UNL     1      12.096   0.419 -15.807  1.00  0.00     0.005 C 
ENDBRANCH   4   5
ENDBRANCH   2   4
ENDBRANCH   1   2
BRANCH   1   7
ATOM      7  C   UNL     1       6.150  -0.863 -17.510  1.00  0.00     0.174 C 
BRANCH   7   8
ATOM      8  C   UNL     1       6.536  -1.662 -18.765  1.00  0.00     0.321 C 
ATOM      9  O   UNL     1       6.879  -1.187 -19.834  1.00  0.00    -0.251 OA
BRANCH   8  10
ATOM     10  O   UNL     1       6.523  -3.002 -18.540  1.00  0.00    -0.480 OA
ATOM     11  H   UNL     1       5.708  -3.321 -18.108  1.00  0.00     0.296 HD
ENDBRANCH   8  10
ENDBRANCH   7   8
BRANCH   7  12
ATOM     12  N   UNL     1       5.946  -1.805 -16.382  1.00  0.00    -0.318 NA
ATOM     13  H   UNL     1       5.298  -2.541 -16.680  1.00  0.00     0.119 HD
ATOM     14  H   UNL     1       5.470  -1.349 -15.603  1.00  0.00     0.119 HD
ENDBRANCH   7  12
ENDBRANCH   1   7
TORSDOF 7
ENDMDL
MODEL 9
REMARK VINA RESULT:      -4.4      3.941      5.313
REMARK SMILES C=CC[S@@](=O)C[C@H](N)C(=O)O
REMARK SMILES IDX 6 1 4 2 5 3 3 4 2 5 1 6 7 7 9 8 10 9 11 10 8 12
REMARK H PARENT 11 11 8 13 8 14
ROOT
ATOM      1  C   UNL     1      -0.720 -10.388 -25.695  1.00  0.00     0.136 C 
ENDROOT
BRANCH   1   2
ATOM      2  S   UNL     1      -0.253  -9.900 -27.394  1.00  0.00     0.027 S 
ATOM      3  O   UNL     1       0.020  -8.424 -27.368  1.00  0.00    -0.259 OA
BRANCH   2   4
ATOM      4  C   UNL     1      -1.906 -10.129 -28.141  1.00  0.00     0.131 C 
BRANCH   4   5
ATOM      5  C   UNL     1      -2.836  -9.054 -27.666  1.00  0.00    -0.021 C 
ATOM      6  C   UNL     1      -4.135  -9.234 -27.392  1.00  0.00     0.005 C 
ENDBRANCH   4   5
ENDBRANCH   2   4
ENDBRANCH   1   2
BRANCH   1   7
ATOM      7  C   UNL     1       0.158 -11.525 -25.161  1.00  0.00     0.174 C 
BRANCH   7   8
ATOM      8  C   UNL     1       0.398 -12.608 -26.226  1.00  0.00     0.321 C 
ATOM      9  O   UNL     1      -0.431 -13.026 -27.016  1.00  0.00    -0.251 OA
BRANCH   8  10
ATOM     10  O   UNL     1       1.692 -13.024 -26.247  1.00  0.00    -0.480 OA
ATOM     11  H   UNL     1       1.898 -13.703 -25.576  1.00  0.00     0.296 HD
ENDBRANCH   8  10
ENDBRANCH   7   8
BRANCH   7  12
ATOM     12  N   UNL     1       1.467 -11.001 -24.702  1.00  0.00    -0.318 NA
ATOM     13  H   UNL     1       2.204 -11.380 -25.306  1.00  0.00     0.119 HD
ATOM     14  H   UNL     1       1.699 -11.352 -23.772  1.00  0.00     0.119 HD
ENDBRANCH   7  12
ENDBRANCH   1   7
TORSDOF 7
ENDMDL
MODEL 10
REMARK VINA RESULT:      -4.4     11.770     12.709
REMARK SMILES C=CC[S@@](=O)C[C@H](N)C(=O)O
REMARK SMILES IDX 6 1 4 2 5 3 3 4 2 5 1 6 7 7 9 8 10 9 11 10 8 12
REMARK H PARENT 11 11 8 13 8 14
ROOT
ATOM      1  C   UNL     1      -8.841  -0.786 -31.819  1.00  0.00     0.136 C 
ENDROOT
BRANCH   1   2
ATOM      2  S   UNL     1      -7.600  -0.793 -30.477  1.00  0.00     0.027 S 
ATOM      3  O   UNL     1      -8.075   0.177 -29.434  1.00  0.00    -0.259 OA
BRANCH   2   4
ATOM      4  C   UNL     1      -6.269   0.036 -31.415  1.00  0.00     0.131 C 
BRANCH   4   5
ATOM      5  C   UNL     1      -4.938  -0.276 -30.802  1.00  0.00    -0.021 C 
ATOM      6  C   UNL     1      -3.764   0.195 -31.243  1.00  0.00     0.005 C 
ENDBRANCH   4   5
ENDBRANCH   2   4
ENDBRANCH   1   2
BRANCH   1   7
ATOM      7  C   UNL     1      -9.839   0.368 -31.674  1.00  0.00     0.174 C 
BRANCH   7   8
ATOM      8  C   UNL     1     -10.532   0.693 -33.007  1.00  0.00     0.321 C 
ATOM      9  O   UNL     1     -10.763  -0.101 -33.902  1.00  0.00    -0.251 OA
BRANCH   8  10
ATOM     10  O   UNL     1     -10.939   1.988 -33.067  1.00  0.00    -0.480 OA
ATOM     11  H   UNL     1     -10.263   2.598 -33.420  1.00  0.00     0.296 HD
ENDBRANCH   8  10
ENDBRANCH   7   8
BRANCH   7  12
ATOM     12  N   UNL     1     -10.871   0.040 -30.661  1.00  0.00    -0.318 NA
ATOM     13  H   UNL     1     -11.171  -0.931 -30.798  1.00  0.00     0.119 HD
ATOM     14  H   UNL     1     -11.719   0.589 -30.808  1.00  0.00     0.119 HD
ENDBRANCH   7  12
ENDBRANCH   1   7
TORSDOF 7
ENDMDL
