MODEL 1
REMARK VINA RESULT:      -6.9      0.000      0.000
REMARK SMILES O=C(O)C=Cc1ccc(O)c(O)c1
REMARK SMILES IDX 5 1 4 2 6 3 7 4 8 5 9 6 13 7 11 8 10 9 12 11 2 13 1 14 3 15
REMARK H PARENT 10 10 12 12 3 16
ROOT
ATOM      1  C   UNL     1       6.056  -2.393 -20.595  1.00  0.00     0.016 C 
ATOM      2  C   UNL     1       5.506  -1.642 -21.563  1.00  0.00     0.094 C 
ENDROOT
BRANCH   1   3
ATOM      3  C   UNL     1       6.614  -1.853 -19.347  1.00  0.00    -0.021 A 
ATOM      4  C   UNL     1       7.805  -1.109 -19.410  1.00  0.00     0.012 A 
ATOM      5  C   UNL     1       8.370  -0.553 -18.257  1.00  0.00     0.051 A 
ATOM      6  C   UNL     1       7.732  -0.733 -17.038  1.00  0.00     0.157 A 
ATOM      7  C   UNL     1       5.976  -2.009 -18.110  1.00  0.00     0.058 A 
ATOM      8  C   UNL     1       6.543  -1.454 -16.970  1.00  0.00     0.157 A 
BRANCH   6   9
ATOM      9  O   UNL     1       8.230  -0.216 -15.874  1.00  0.00    -0.504 OA
ATOM     10  H   UNL     1       8.244  -0.926 -15.209  1.00  0.00     0.293 HD
ENDBRANCH   6   9
BRANCH   8  11
ATOM     11  O   UNL     1       5.916  -1.621 -15.767  1.00  0.00    -0.504 OA
ATOM     12  H   UNL     1       6.625  -1.914 -15.160  1.00  0.00     0.293 HD
ENDBRANCH   8  11
ENDBRANCH   1   3
BRANCH   2  13
ATOM     13  C   UNL     1       4.957  -2.302 -22.765  1.00  0.00     0.328 C 
ATOM     14  O   UNL     1       4.270  -3.307 -22.750  1.00  0.00    -0.247 OA
BRANCH  13  15
ATOM     15  O   UNL     1       5.305  -1.660 -23.897  1.00  0.00    -0.478 OA
ATOM     16  H   UNL     1       5.992  -0.976 -23.800  1.00  0.00     0.297 HD
ENDBRANCH  13  15
ENDBRANCH   2  13
TORSDOF 5
ENDMDL
MODEL 2
REMARK VINA RESULT:      -6.5      0.740      1.794
REMARK SMILES O=C(O)C=Cc1ccc(O)c(O)c1
REMARK SMILES IDX 5 1 4 2 6 3 7 4 8 5 9 6 13 7 11 8 10 9 12 11 2 13 1 14 3 15
REMARK H PARENT 10 10 12 12 3 16
ROOT
ATOM      1  C   UNL     1       6.098  -2.288 -20.608  1.00  0.00     0.016 C 
ATOM      2  C   UNL     1       5.379  -1.607 -21.514  1.00  0.00     0.094 C 
ENDROOT
BRANCH   1   3
ATOM      3  C   UNL     1       6.543  -1.734 -19.321  1.00  0.00    -0.021 A 
ATOM      4  C   UNL     1       6.078  -2.329 -18.135  1.00  0.00     0.012 A 
ATOM      5  C   UNL     1       6.487  -1.857 -16.883  1.00  0.00     0.051 A 
ATOM      6  C   UNL     1       7.374  -0.792 -16.819  1.00  0.00     0.157 A 
ATOM      7  C   UNL     1       7.453  -0.671 -19.236  1.00  0.00     0.058 A 
ATOM      8  C   UNL     1       7.853  -0.208 -17.988  1.00  0.00     0.157 A 
BRANCH   6   9
ATOM      9  O   UNL     1       7.814  -0.284 -15.628  1.00  0.00    -0.504 OA
ATOM     10  H   UNL     1       8.264   0.560 -15.807  1.00  0.00     0.293 HD
ENDBRANCH   6   9
BRANCH   8  11
ATOM     11  O   UNL     1       8.732   0.834 -17.918  1.00  0.00    -0.504 OA
ATOM     12  H   UNL     1       8.367   1.416 -17.222  1.00  0.00     0.293 HD
ENDBRANCH   8  11
ENDBRANCH   1   3
BRANCH   2  13
ATOM     13  C   UNL     1       4.970  -2.279 -22.764  1.00  0.00     0.328 C 
ATOM     14  O   UNL     1       4.312  -3.303 -22.817  1.00  0.00    -0.247 OA
BRANCH  13  15
ATOM     15  O   UNL     1       5.411  -1.627 -23.857  1.00  0.00    -0.478 OA
ATOM     16  H   UNL     1       4.937  -0.805 -24.076  1.00  0.00     0.297 HD
ENDBRANCH  13  15
ENDBRANCH   2  13
TORSDOF 5
ENDMDL
MODEL 3
REMARK VINA RESULT:      -6.4     15.844     18.709
REMARK SMILES O=C(O)C=Cc1ccc(O)c(O)c1
REMARK SMILES IDX 5 1 4 2 6 3 7 4 8 5 9 6 13 7 11 8 10 9 12 11 2 13 1 14 3 15
REMARK H PARENT 10 10 12 12 3 16
ROOT
ATOM      1  C   UNL     1      -8.547   1.717 -31.930  1.00  0.00     0.016 C 
ATOM      2  C   UNL     1      -8.936   0.776 -32.805  1.00  0.00     0.094 C 
ENDROOT
BRANCH   1   3
ATOM      3  C   UNL     1      -7.183   1.833 -31.394  1.00  0.00    -0.021 A 
ATOM      4  C   UNL     1      -7.014   2.288 -30.074  1.00  0.00     0.012 A 
ATOM      5  C   UNL     1      -5.741   2.396 -29.505  1.00  0.00     0.051 A 
ATOM      6  C   UNL     1      -4.632   2.037 -30.258  1.00  0.00     0.157 A 
ATOM      7  C   UNL     1      -6.052   1.458 -32.132  1.00  0.00     0.058 A 
ATOM      8  C   UNL     1      -4.791   1.570 -31.560  1.00  0.00     0.157 A 
BRANCH   6   9
ATOM      9  O   UNL     1      -3.360   2.118 -29.762  1.00  0.00    -0.504 OA
ATOM     10  H   UNL     1      -3.336   2.838 -29.108  1.00  0.00     0.293 HD
ENDBRANCH   6   9
BRANCH   8  11
ATOM     11  O   UNL     1      -3.695   1.210 -32.293  1.00  0.00    -0.504 OA
ATOM     12  H   UNL     1      -3.729   0.233 -32.319  1.00  0.00     0.293 HD
ENDBRANCH   8  11
ENDBRANCH   1   3
BRANCH   2  13
ATOM     13  C   UNL     1     -10.332   0.775 -33.289  1.00  0.00     0.328 C 
ATOM     14  O   UNL     1     -10.864  -0.158 -33.864  1.00  0.00    -0.247 OA
BRANCH  13  15
ATOM     15  O   UNL     1     -10.962   1.935 -33.020  1.00  0.00    -0.478 OA
ATOM     16  H   UNL     1     -11.926   1.871 -32.897  1.00  0.00     0.297 HD
ENDBRANCH  13  15
ENDBRANCH   2  13
TORSDOF 5
ENDMDL
MODEL 4
REMARK VINA RESULT:      -6.2      2.020      2.910
REMARK SMILES O=C(O)C=Cc1ccc(O)c(O)c1
REMARK SMILES IDX 5 1 4 2 6 3 7 4 8 5 9 6 13 7 11 8 10 9 12 11 2 13 1 14 3 15
REMARK H PARENT 10 10 12 12 3 16
ROOT
ATOM      1  C   UNL     1       7.715  -1.373 -19.085  1.00  0.00     0.016 C 
ATOM      2  C   UNL     1       6.473  -1.486 -19.581  1.00  0.00     0.094 C 
ENDROOT
BRANCH   1   3
ATOM      3  C   UNL     1       8.078  -0.507 -17.954  1.00  0.00    -0.021 A 
ATOM      4  C   UNL     1       9.192  -0.856 -17.170  1.00  0.00     0.012 A 
ATOM      5  C   UNL     1       9.596  -0.057 -16.095  1.00  0.00     0.051 A 
ATOM      6  C   UNL     1       8.888   1.102 -15.811  1.00  0.00     0.157 A 
ATOM      7  C   UNL     1       7.386   0.676 -17.662  1.00  0.00     0.058 A 
ATOM      8  C   UNL     1       7.793   1.463 -16.592  1.00  0.00     0.157 A 
BRANCH   6   9
ATOM      9  O   UNL     1       9.230   1.927 -14.776  1.00  0.00    -0.504 OA
ATOM     10  H   UNL     1       9.769   1.416 -14.147  1.00  0.00     0.293 HD
ENDBRANCH   6   9
BRANCH   8  11
ATOM     11  O   UNL     1       7.106   2.609 -16.312  1.00  0.00    -0.504 OA
ATOM     12  H   UNL     1       7.337   2.813 -15.383  1.00  0.00     0.293 HD
ENDBRANCH   8  11
ENDBRANCH   1   3
BRANCH   2  13
ATOM     13  C   UNL     1       6.227  -2.407 -20.709  1.00  0.00     0.328 C 
ATOM     14  O   UNL     1       5.594  -2.123 -21.710  1.00  0.00    -0.247 OA
BRANCH  13  15
ATOM     15  O   UNL     1       6.789  -3.615 -20.508  1.00  0.00    -0.478 OA
ATOM     16  H   UNL     1       7.352  -3.943 -21.232  1.00  0.00     0.297 HD
ENDBRANCH  13  15
ENDBRANCH   2  13
TORSDOF 5
ENDMDL
MODEL 5
REMARK VINA RESULT:      -6.2     16.021     19.713
REMARK SMILES O=C(O)C=Cc1ccc(O)c(O)c1
REMARK SMILES IDX 5 1 4 2 6 3 7 4 8 5 9 6 13 7 11 8 10 9 12 11 2 13 1 14 3 15
REMARK H PARENT 10 10 12 12 3 16
ROOT
ATOM      1  C   UNL     1      -6.342   1.047 -31.783  1.00  0.00     0.016 C 
ATOM      2  C   UNL     1      -5.418   0.213 -31.280  1.00  0.00     0.094 C 
ENDROOT
BRANCH   1   3
ATOM      3  C   UNL     1      -7.729   0.662 -32.077  1.00  0.00    -0.021 A 
ATOM      4  C   UNL     1      -8.101  -0.685 -31.921  1.00  0.00     0.012 A 
ATOM      5  C   UNL     1      -9.413  -1.104 -32.165  1.00  0.00     0.051 A 
ATOM      6  C   UNL     1     -10.360  -0.168 -32.556  1.00  0.00     0.157 A 
ATOM      7  C   UNL     1      -8.703   1.595 -32.456  1.00  0.00     0.058 A 
ATOM      8  C   UNL     1     -10.004   1.170 -32.698  1.00  0.00     0.157 A 
BRANCH   6   9
ATOM      9  O   UNL     1     -11.659  -0.511 -32.810  1.00  0.00    -0.504 OA
ATOM     10  H   UNL     1     -12.233   0.173 -32.423  1.00  0.00     0.293 HD
ENDBRANCH   6   9
BRANCH   8  11
ATOM     11  O   UNL     1     -10.943   2.088 -33.075  1.00  0.00    -0.504 OA
ATOM     12  H   UNL     1     -10.753   2.257 -34.020  1.00  0.00     0.293 HD
ENDBRANCH   8  11
ENDBRANCH   1   3
BRANCH   2  13
ATOM     13  C   UNL     1      -4.059   0.723 -31.005  1.00  0.00     0.328 C 
ATOM     14  O   UNL     1      -3.633   0.998 -29.898  1.00  0.00    -0.247 OA
BRANCH  13  15
ATOM     15  O   UNL     1      -3.329   0.852 -32.131  1.00  0.00    -0.478 OA
ATOM     16  H   UNL     1      -3.477   1.672 -32.636  1.00  0.00     0.297 HD
ENDBRANCH  13  15
ENDBRANCH   2  13
TORSDOF 5
ENDMDL
MODEL 6
REMARK VINA RESULT:      -6.1      2.367      3.481
REMARK SMILES O=C(O)C=Cc1ccc(O)c(O)c1
REMARK SMILES IDX 5 1 4 2 6 3 7 4 8 5 9 6 13 7 11 8 10 9 12 11 2 13 1 14 3 15
REMARK H PARENT 10 10 12 12 3 16
ROOT
ATOM      1  C   UNL     1       5.130  -1.708 -23.315  1.00  0.00     0.016 C 
ATOM      2  C   UNL     1       3.872  -1.681 -23.783  1.00  0.00     0.094 C 
ENDROOT
BRANCH   1   3
ATOM      3  C   UNL     1       5.493  -2.098 -21.945  1.00  0.00    -0.021 A 
ATOM      4  C   UNL     1       5.093  -3.362 -21.477  1.00  0.00     0.012 A 
ATOM      5  C   UNL     1       5.429  -3.795 -20.190  1.00  0.00     0.051 A 
ATOM      6  C   UNL     1       6.181  -2.963 -19.373  1.00  0.00     0.157 A 
ATOM      7  C   UNL     1       6.267  -1.280 -21.111  1.00  0.00     0.058 A 
ATOM      8  C   UNL     1       6.596  -1.717 -19.834  1.00  0.00     0.157 A 
BRANCH   6   9
ATOM      9  O   UNL     1       6.545  -3.326 -18.105  1.00  0.00    -0.504 OA
ATOM     10  H   UNL     1       5.820  -3.084 -17.502  1.00  0.00     0.293 HD
ENDBRANCH   6   9
BRANCH   8  11
ATOM     11  O   UNL     1       7.342  -0.906 -19.027  1.00  0.00    -0.504 OA
ATOM     12  H   UNL     1       7.250  -0.016 -19.422  1.00  0.00     0.293 HD
ENDBRANCH   8  11
ENDBRANCH   1   3
BRANCH   2  13
ATOM     13  C   UNL     1       3.634  -1.292 -25.188  1.00  0.00     0.328 C 
ATOM     14  O   UNL     1       4.026  -1.918 -26.157  1.00  0.00    -0.247 OA
BRANCH  13  15
ATOM     15  O   UNL     1       2.923  -0.151 -25.283  1.00  0.00    -0.478 OA
ATOM     16  H   UNL     1       2.054  -0.232 -25.716  1.00  0.00     0.297 HD
ENDBRANCH  13  15
ENDBRANCH   2  13
TORSDOF 5
ENDMDL
MODEL 7
REMARK VINA RESULT:      -6.1     15.878     18.538
REMARK SMILES O=C(O)C=Cc1ccc(O)c(O)c1
REMARK SMILES IDX 5 1 4 2 6 3 7 4 8 5 9 6 13 7 11 8 10 9 12 11 2 13 1 14 3 15
REMARK H PARENT 10 10 12 12 3 16
ROOT
ATOM      1  C   UNL     1      -8.624   1.663 -31.766  1.00  0.00     0.016 C 
ATOM      2  C   UNL     1      -8.929   0.878 -32.811  1.00  0.00     0.094 C 
ENDROOT
BRANCH   1   3
ATOM      3  C   UNL     1      -7.272   1.806 -31.208  1.00  0.00    -0.021 A 
ATOM      4  C   UNL     1      -6.173   1.433 -32.003  1.00  0.00     0.012 A 
ATOM      5  C   UNL     1      -4.862   1.569 -31.532  1.00  0.00     0.051 A 
ATOM      6  C   UNL     1      -4.651   2.091 -30.264  1.00  0.00     0.157 A 
ATOM      7  C   UNL     1      -7.036   2.348 -29.938  1.00  0.00     0.058 A 
ATOM      8  C   UNL     1      -5.732   2.478 -29.477  1.00  0.00     0.157 A 
BRANCH   6   9
ATOM      9  O   UNL     1      -3.397   2.251 -29.744  1.00  0.00    -0.504 OA
ATOM     10  H   UNL     1      -3.118   1.401 -29.360  1.00  0.00     0.293 HD
ENDBRANCH   6   9
BRANCH   8  11
ATOM     11  O   UNL     1      -5.517   2.999 -28.233  1.00  0.00    -0.504 OA
ATOM     12  H   UNL     1      -5.396   3.958 -28.386  1.00  0.00     0.293 HD
ENDBRANCH   8  11
ENDBRANCH   1   3
BRANCH   2  13
ATOM     13  C   UNL     1     -10.324   0.833 -33.297  1.00  0.00     0.328 C 
ATOM     14  O   UNL     1     -10.836  -0.127 -33.844  1.00  0.00    -0.247 OA
BRANCH  13  15
ATOM     15  O   UNL     1     -10.978   1.988 -33.064  1.00  0.00    -0.478 OA
ATOM     16  H   UNL     1     -11.089   2.572 -33.836  1.00  0.00     0.297 HD
ENDBRANCH  13  15
ENDBRANCH   2  13
TORSDOF 5
ENDMDL
MODEL 8
REMARK VINA RESULT:      -6.1     15.488     19.078
REMARK SMILES O=C(O)C=Cc1ccc(O)c(O)c1
REMARK SMILES IDX 5 1 4 2 6 3 7 4 8 5 9 6 13 7 11 8 10 9 12 11 2 13 1 14 3 15
REMARK H PARENT 10 10 12 12 3 16
ROOT
ATOM      1  C   UNL     1      -6.029  -0.116 -31.139  1.00  0.00     0.016 C 
ATOM      2  C   UNL     1      -4.851   0.453 -31.442  1.00  0.00     0.094 C 
ENDROOT
BRANCH   1   3
ATOM      3  C   UNL     1      -7.332   0.395 -31.588  1.00  0.00    -0.021 A 
ATOM      4  C   UNL     1      -7.381   1.186 -32.749  1.00  0.00     0.012 A 
ATOM      5  C   UNL     1      -8.596   1.680 -33.235  1.00  0.00     0.051 A 
ATOM      6  C   UNL     1      -9.769   1.371 -32.561  1.00  0.00     0.157 A 
ATOM      7  C   UNL     1      -8.529   0.079 -30.932  1.00  0.00     0.058 A 
ATOM      8  C   UNL     1      -9.731   0.574 -31.420  1.00  0.00     0.157 A 
BRANCH   6   9
ATOM      9  O   UNL     1     -10.989   1.820 -32.983  1.00  0.00    -0.504 OA
ATOM     10  H   UNL     1     -11.135   2.704 -32.602  1.00  0.00     0.293 HD
ENDBRANCH   6   9
BRANCH   8  11
ATOM     11  O   UNL     1     -10.891   0.266 -30.766  1.00  0.00    -0.504 OA
ATOM     12  H   UNL     1     -10.638   0.237 -29.822  1.00  0.00     0.293 HD
ENDBRANCH   8  11
ENDBRANCH   1   3
BRANCH   2  13
ATOM     13  C   UNL     1      -3.603  -0.166 -30.950  1.00  0.00     0.328 C 
ATOM     14  O   UNL     1      -3.212  -0.114 -29.797  1.00  0.00    -0.247 OA
BRANCH  13  15
ATOM     15  O   UNL     1      -2.934  -0.805 -31.929  1.00  0.00    -0.478 OA
ATOM     16  H   UNL     1      -3.258  -0.643 -32.834  1.00  0.00     0.297 HD
ENDBRANCH  13  15
ENDBRANCH   2  13
TORSDOF 5
ENDMDL
MODEL 9
REMARK VINA RESULT:      -6.1     15.822     18.612
REMARK SMILES O=C(O)C=Cc1ccc(O)c(O)c1
REMARK SMILES IDX 5 1 4 2 6 3 7 4 8 5 9 6 13 7 11 8 10 9 12 11 2 13 1 14 3 15
REMARK H PARENT 10 10 12 12 3 16
ROOT
ATOM      1  C   UNL     1      -8.547   1.206 -31.648  1.00  0.00     0.016 C 
ATOM      2  C   UNL     1      -9.087   0.641 -32.740  1.00  0.00     0.094 C 
ENDROOT
BRANCH   1   3
ATOM      3  C   UNL     1      -7.116   1.156 -31.315  1.00  0.00    -0.021 A 
ATOM      4  C   UNL     1      -6.497  -0.101 -31.196  1.00  0.00     0.012 A 
ATOM      5  C   UNL     1      -5.134  -0.209 -30.902  1.00  0.00     0.051 A 
ATOM      6  C   UNL     1      -4.385   0.947 -30.738  1.00  0.00     0.157 A 
ATOM      7  C   UNL     1      -6.339   2.311 -31.163  1.00  0.00     0.058 A 
ATOM      8  C   UNL     1      -4.986   2.196 -30.870  1.00  0.00     0.157 A 
BRANCH   6   9
ATOM      9  O   UNL     1      -3.048   0.912 -30.451  1.00  0.00    -0.504 OA
ATOM     10  H   UNL     1      -2.557   0.968 -31.289  1.00  0.00     0.293 HD
ENDBRANCH   6   9
BRANCH   8  11
ATOM     11  O   UNL     1      -4.241   3.330 -30.715  1.00  0.00    -0.504 OA
ATOM     12  H   UNL     1      -3.404   3.020 -30.314  1.00  0.00     0.293 HD
ENDBRANCH   8  11
ENDBRANCH   1   3
BRANCH   2  13
ATOM     13  C   UNL     1     -10.538   0.778 -32.980  1.00  0.00     0.328 C 
ATOM     14  O   UNL     1     -11.315  -0.155 -33.079  1.00  0.00    -0.247 OA
BRANCH  13  15
ATOM     15  O   UNL     1     -10.915   2.068 -33.078  1.00  0.00    -0.478 OA
ATOM     16  H   UNL     1     -10.204   2.724 -32.963  1.00  0.00     0.297 HD
ENDBRANCH  13  15
ENDBRANCH   2  13
TORSDOF 5
ENDMDL
MODEL 10
REMARK VINA RESULT:      -5.9      1.991      2.905
REMARK SMILES O=C(O)C=Cc1ccc(O)c(O)c1
REMARK SMILES IDX 5 1 4 2 6 3 7 4 8 5 9 6 13 7 11 8 10 9 12 11 2 13 1 14 3 15
REMARK H PARENT 10 10 12 12 3 16
ROOT
ATOM      1  C   UNL     1       7.508  -1.554 -19.187  1.00  0.00     0.016 C 
ATOM      2  C   UNL     1       6.344  -1.407 -19.839  1.00  0.00     0.094 C 
ENDROOT
BRANCH   1   3
ATOM      3  C   UNL     1       7.963  -0.675 -18.101  1.00  0.00    -0.021 A 
ATOM      4  C   UNL     1       7.096   0.333 -17.643  1.00  0.00     0.012 A 
ATOM      5  C   UNL     1       7.467   1.185 -16.597  1.00  0.00     0.051 A 
ATOM      6  C   UNL     1       8.708   1.019 -16.000  1.00  0.00     0.157 A 
ATOM      7  C   UNL     1       9.205  -0.837 -17.472  1.00  0.00     0.058 A 
ATOM      8  C   UNL     1       9.567   0.013 -16.435  1.00  0.00     0.157 A 
BRANCH   6   9
ATOM      9  O   UNL     1       9.133   1.816 -14.973  1.00  0.00    -0.504 OA
ATOM     10  H   UNL     1       9.070   1.304 -14.147  1.00  0.00     0.293 HD
ENDBRANCH   6   9
BRANCH   8  11
ATOM     11  O   UNL     1      10.784  -0.150 -15.837  1.00  0.00    -0.504 OA
ATOM     12  H   UNL     1      11.418  -0.192 -16.581  1.00  0.00     0.293 HD
ENDBRANCH   8  11
ENDBRANCH   1   3
BRANCH   2  13
ATOM     13  C   UNL     1       5.985  -2.370 -20.900  1.00  0.00     0.328 C 
ATOM     14  O   UNL     1       5.344  -2.093 -21.898  1.00  0.00    -0.247 OA
BRANCH  13  15
ATOM     15  O   UNL     1       6.452  -3.607 -20.641  1.00  0.00    -0.478 OA
ATOM     16  H   UNL     1       6.995  -4.007 -21.344  1.00  0.00     0.297 HD
ENDBRANCH  13  15
ENDBRANCH   2  13
TORSDOF 5
ENDMDL
