MODEL 1
REMARK VINA RESULT:      -6.8      0.000      0.000
REMARK SMILES O=C(O)/C=C/c1ccc(O)c(O)c1
REMARK SMILES IDX 5 1 4 2 6 3 7 4 8 5 9 6 13 7 11 8 10 9 12 11 2 13 1 14 3 15
REMARK H PARENT 10 10 12 12 3 16
ROOT
ATOM      1  C   UNL     1       6.042  -2.394 -20.574  1.00  0.00     0.016 C 
ATOM      2  C   UNL     1       5.522  -1.645 -21.558  1.00  0.00     0.094 C 
ENDROOT
BRANCH   1   3
ATOM      3  C   UNL     1       6.608  -1.849 -19.332  1.00  0.00    -0.021 A 
ATOM      4  C   UNL     1       7.796  -1.099 -19.406  1.00  0.00     0.012 A 
ATOM      5  C   UNL     1       8.368  -0.537 -18.259  1.00  0.00     0.051 A 
ATOM      6  C   UNL     1       7.741  -0.718 -17.035  1.00  0.00     0.157 A 
ATOM      7  C   UNL     1       5.982  -2.005 -18.089  1.00  0.00     0.058 A 
ATOM      8  C   UNL     1       6.556  -1.444 -16.955  1.00  0.00     0.157 A 
BRANCH   6   9
ATOM      9  O   UNL     1       8.246  -0.195 -15.877  1.00  0.00    -0.504 OA
ATOM     10  H   UNL     1       7.503  -0.036 -15.267  1.00  0.00     0.293 HD
ENDBRANCH   6   9
BRANCH   8  11
ATOM     11  O   UNL     1       5.940  -1.611 -15.747  1.00  0.00    -0.504 OA
ATOM     12  H   UNL     1       5.140  -2.135 -15.951  1.00  0.00     0.293 HD
ENDBRANCH   8  11
ENDBRANCH   1   3
BRANCH   2  13
ATOM     13  C   UNL     1       4.961  -2.310 -22.752  1.00  0.00     0.328 C 
ATOM     14  O   UNL     1       4.279  -3.318 -22.727  1.00  0.00    -0.247 OA
BRANCH  13  15
ATOM     15  O   UNL     1       5.291  -1.669 -23.890  1.00  0.00    -0.478 OA
ATOM     16  H   UNL     1       5.224  -2.198 -24.706  1.00  0.00     0.297 HD
ENDBRANCH  13  15
ENDBRANCH   2  13
TORSDOF 5
ENDMDL
MODEL 2
REMARK VINA RESULT:      -6.5      0.811      2.033
REMARK SMILES O=C(O)/C=C/c1ccc(O)c(O)c1
REMARK SMILES IDX 5 1 4 2 6 3 7 4 8 5 9 6 13 7 11 8 10 9 12 11 2 13 1 14 3 15
REMARK H PARENT 10 10 12 12 3 16
ROOT
ATOM      1  C   UNL     1       6.242  -2.219 -20.384  1.00  0.00     0.016 C 
ATOM      2  C   UNL     1       5.515  -1.557 -21.297  1.00  0.00     0.094 C 
ENDROOT
BRANCH   1   3
ATOM      3  C   UNL     1       6.680  -1.646 -19.103  1.00  0.00    -0.021 A 
ATOM      4  C   UNL     1       6.154  -2.179 -17.913  1.00  0.00     0.012 A 
ATOM      5  C   UNL     1       6.552  -1.687 -16.665  1.00  0.00     0.051 A 
ATOM      6  C   UNL     1       7.489  -0.666 -16.609  1.00  0.00     0.157 A 
ATOM      7  C   UNL     1       7.638  -0.627 -19.025  1.00  0.00     0.058 A 
ATOM      8  C   UNL     1       8.027  -0.144 -17.782  1.00  0.00     0.157 A 
BRANCH   6   9
ATOM      9  O   UNL     1       7.921  -0.141 -15.422  1.00  0.00    -0.504 OA
ATOM     10  H   UNL     1       7.510   0.734 -15.310  1.00  0.00     0.293 HD
ENDBRANCH   6   9
BRANCH   8  11
ATOM     11  O   UNL     1       8.955   0.856 -17.719  1.00  0.00    -0.504 OA
ATOM     12  H   UNL     1       9.225   0.881 -16.779  1.00  0.00     0.293 HD
ENDBRANCH   8  11
ENDBRANCH   1   3
BRANCH   2  13
ATOM     13  C   UNL     1       5.115  -2.247 -22.540  1.00  0.00     0.328 C 
ATOM     14  O   UNL     1       5.344  -1.837 -23.665  1.00  0.00    -0.247 OA
BRANCH  13  15
ATOM     15  O   UNL     1       4.461  -3.398 -22.292  1.00  0.00    -0.478 OA
ATOM     16  H   UNL     1       4.447  -4.041 -23.025  1.00  0.00     0.297 HD
ENDBRANCH  13  15
ENDBRANCH   2  13
TORSDOF 5
ENDMDL
MODEL 3
REMARK VINA RESULT:      -6.4     15.871     18.720
REMARK SMILES O=C(O)/C=C/c1ccc(O)c(O)c1
REMARK SMILES IDX 5 1 4 2 6 3 7 4 8 5 9 6 13 7 11 8 10 9 12 11 2 13 1 14 3 15
REMARK H PARENT 10 10 12 12 3 16
ROOT
ATOM      1  C   UNL     1      -8.562   1.676 -31.886  1.00  0.00     0.016 C 
ATOM      2  C   UNL     1      -8.911   0.837 -32.874  1.00  0.00     0.094 C 
ENDROOT
BRANCH   1   3
ATOM      3  C   UNL     1      -7.194   1.818 -31.368  1.00  0.00    -0.021 A 
ATOM      4  C   UNL     1      -7.016   2.323 -30.068  1.00  0.00     0.012 A 
ATOM      5  C   UNL     1      -5.738   2.459 -29.515  1.00  0.00     0.051 A 
ATOM      6  C   UNL     1      -4.634   2.076 -30.263  1.00  0.00     0.157 A 
ATOM      7  C   UNL     1      -6.068   1.420 -32.101  1.00  0.00     0.058 A 
ATOM      8  C   UNL     1      -4.802   1.559 -31.545  1.00  0.00     0.157 A 
BRANCH   6   9
ATOM      9  O   UNL     1      -3.358   2.181 -29.783  1.00  0.00    -0.504 OA
ATOM     10  H   UNL     1      -3.409   2.357 -28.827  1.00  0.00     0.293 HD
ENDBRANCH   6   9
BRANCH   8  11
ATOM     11  O   UNL     1      -3.712   1.176 -32.274  1.00  0.00    -0.504 OA
ATOM     12  H   UNL     1      -3.969   0.319 -32.668  1.00  0.00     0.293 HD
ENDBRANCH   8  11
ENDBRANCH   1   3
BRANCH   2  13
ATOM     13  C   UNL     1     -10.317   0.798 -33.325  1.00  0.00     0.328 C 
ATOM     14  O   UNL     1     -10.838  -0.147 -33.890  1.00  0.00    -0.247 OA
BRANCH  13  15
ATOM     15  O   UNL     1     -10.972   1.940 -33.039  1.00  0.00    -0.478 OA
ATOM     16  H   UNL     1     -11.884   1.998 -33.375  1.00  0.00     0.297 HD
ENDBRANCH  13  15
ENDBRANCH   2  13
TORSDOF 5
ENDMDL
MODEL 4
REMARK VINA RESULT:      -6.2     16.022     19.720
REMARK SMILES O=C(O)/C=C/c1ccc(O)c(O)c1
REMARK SMILES IDX 5 1 4 2 6 3 7 4 8 5 9 6 13 7 11 8 10 9 12 11 2 13 1 14 3 15
REMARK H PARENT 10 10 12 12 3 16
ROOT
ATOM      1  C   UNL     1      -6.291   0.992 -31.908  1.00  0.00     0.016 C 
ATOM      2  C   UNL     1      -5.439   0.263 -31.169  1.00  0.00     0.094 C 
ENDROOT
BRANCH   1   3
ATOM      3  C   UNL     1      -7.691   0.620 -32.160  1.00  0.00    -0.021 A 
ATOM      4  C   UNL     1      -8.076  -0.719 -31.972  1.00  0.00     0.012 A 
ATOM      5  C   UNL     1      -9.399  -1.125 -32.176  1.00  0.00     0.051 A 
ATOM      6  C   UNL     1     -10.343  -0.183 -32.559  1.00  0.00     0.157 A 
ATOM      7  C   UNL     1      -8.662   1.559 -32.530  1.00  0.00     0.058 A 
ATOM      8  C   UNL     1      -9.974   1.148 -32.732  1.00  0.00     0.157 A 
BRANCH   6   9
ATOM      9  O   UNL     1     -11.653  -0.512 -32.774  1.00  0.00    -0.504 OA
ATOM     10  H   UNL     1     -12.184   0.301 -32.709  1.00  0.00     0.293 HD
ENDBRANCH   6   9
BRANCH   8  11
ATOM     11  O   UNL     1     -10.910   2.072 -33.101  1.00  0.00    -0.504 OA
ATOM     12  H   UNL     1     -11.620   1.982 -32.434  1.00  0.00     0.293 HD
ENDBRANCH   8  11
ENDBRANCH   1   3
BRANCH   2  13
ATOM     13  C   UNL     1      -4.060   0.751 -30.968  1.00  0.00     0.328 C 
ATOM     14  O   UNL     1      -3.602   1.114 -29.898  1.00  0.00    -0.247 OA
BRANCH  13  15
ATOM     15  O   UNL     1      -3.350   0.751 -32.113  1.00  0.00    -0.478 OA
ATOM     16  H   UNL     1      -3.876   0.782 -32.933  1.00  0.00     0.297 HD
ENDBRANCH  13  15
ENDBRANCH   2  13
TORSDOF 5
ENDMDL
MODEL 5
REMARK VINA RESULT:      -6.2     15.747     18.546
REMARK SMILES O=C(O)/C=C/c1ccc(O)c(O)c1
REMARK SMILES IDX 5 1 4 2 6 3 7 4 8 5 9 6 13 7 11 8 10 9 12 11 2 13 1 14 3 15
REMARK H PARENT 10 10 12 12 3 16
ROOT
ATOM      1  C   UNL     1      -8.577   1.364 -31.646  1.00  0.00     0.016 C 
ATOM      2  C   UNL     1      -9.112   0.613 -32.622  1.00  0.00     0.094 C 
ENDROOT
BRANCH   1   3
ATOM      3  C   UNL     1      -7.158   1.330 -31.263  1.00  0.00    -0.021 A 
ATOM      4  C   UNL     1      -6.579   2.493 -30.723  1.00  0.00     0.012 A 
ATOM      5  C   UNL     1      -5.239   2.511 -30.320  1.00  0.00     0.051 A 
ATOM      6  C   UNL     1      -4.480   1.357 -30.448  1.00  0.00     0.157 A 
ATOM      7  C   UNL     1      -6.379   0.170 -31.367  1.00  0.00     0.058 A 
ATOM      8  C   UNL     1      -5.050   0.197 -30.966  1.00  0.00     0.157 A 
BRANCH   6   9
ATOM      9  O   UNL     1      -3.166   1.307 -30.072  1.00  0.00    -0.504 OA
ATOM     10  H   UNL     1      -2.797   2.205 -30.141  1.00  0.00     0.293 HD
ENDBRANCH   6   9
BRANCH   8  11
ATOM     11  O   UNL     1      -4.298  -0.938 -31.081  1.00  0.00    -0.504 OA
ATOM     12  H   UNL     1      -4.907  -1.661 -30.827  1.00  0.00     0.293 HD
ENDBRANCH   8  11
ENDBRANCH   1   3
BRANCH   2  13
ATOM     13  C   UNL     1     -10.550   0.751 -32.931  1.00  0.00     0.328 C 
ATOM     14  O   UNL     1     -11.325  -0.181 -33.054  1.00  0.00    -0.247 OA
BRANCH  13  15
ATOM     15  O   UNL     1     -10.918   2.041 -33.065  1.00  0.00    -0.478 OA
ATOM     16  H   UNL     1     -11.823   2.252 -32.773  1.00  0.00     0.297 HD
ENDBRANCH  13  15
ENDBRANCH   2  13
TORSDOF 5
ENDMDL
MODEL 6
REMARK VINA RESULT:      -6.1      1.998      2.921
REMARK SMILES O=C(O)/C=C/c1ccc(O)c(O)c1
REMARK SMILES IDX 5 1 4 2 6 3 7 4 8 5 9 6 13 7 11 8 10 9 12 11 2 13 1 14 3 15
REMARK H PARENT 10 10 12 12 3 16
ROOT
ATOM      1  C   UNL     1       7.770  -1.312 -19.130  1.00  0.00     0.016 C 
ATOM      2  C   UNL     1       6.504  -1.574 -19.495  1.00  0.00     0.094 C 
ENDROOT
BRANCH   1   3
ATOM      3  C   UNL     1       8.142  -0.521 -17.948  1.00  0.00    -0.021 A 
ATOM      4  C   UNL     1       9.191  -0.982 -17.134  1.00  0.00     0.012 A 
ATOM      5  C   UNL     1       9.603  -0.258 -16.009  1.00  0.00     0.051 A 
ATOM      6  C   UNL     1       8.968   0.938 -15.706  1.00  0.00     0.157 A 
ATOM      7  C   UNL     1       7.525   0.697 -17.635  1.00  0.00     0.058 A 
ATOM      8  C   UNL     1       7.939   1.409 -16.517  1.00  0.00     0.157 A 
BRANCH   6   9
ATOM      9  O   UNL     1       9.321   1.694 -14.623  1.00  0.00    -0.504 OA
ATOM     10  H   UNL     1       8.733   2.469 -14.590  1.00  0.00     0.293 HD
ENDBRANCH   6   9
BRANCH   8  11
ATOM     11  O   UNL     1       7.323   2.591 -16.217  1.00  0.00    -0.504 OA
ATOM     12  H   UNL     1       6.652   2.354 -15.545  1.00  0.00     0.293 HD
ENDBRANCH   8  11
ENDBRANCH   1   3
BRANCH   2  13
ATOM     13  C   UNL     1       6.255  -2.401 -20.693  1.00  0.00     0.328 C 
ATOM     14  O   UNL     1       5.592  -2.048 -21.652  1.00  0.00    -0.247 OA
BRANCH  13  15
ATOM     15  O   UNL     1       6.851  -3.606 -20.609  1.00  0.00    -0.478 OA
ATOM     16  H   UNL     1       6.319  -4.310 -20.195  1.00  0.00     0.297 HD
ENDBRANCH  13  15
ENDBRANCH   2  13
TORSDOF 5
ENDMDL
MODEL 7
REMARK VINA RESULT:      -6.1     15.835     18.620
REMARK SMILES O=C(O)/C=C/c1ccc(O)c(O)c1
REMARK SMILES IDX 5 1 4 2 6 3 7 4 8 5 9 6 13 7 11 8 10 9 12 11 2 13 1 14 3 15
REMARK H PARENT 10 10 12 12 3 16
ROOT
ATOM      1  C   UNL     1      -8.541   1.252 -31.668  1.00  0.00     0.016 C 
ATOM      2  C   UNL     1      -9.096   0.614 -32.711  1.00  0.00     0.094 C 
ENDROOT
BRANCH   1   3
ATOM      3  C   UNL     1      -7.112   1.191 -31.328  1.00  0.00    -0.021 A 
ATOM      4  C   UNL     1      -6.497  -0.070 -31.232  1.00  0.00     0.012 A 
ATOM      5  C   UNL     1      -5.135  -0.188 -30.933  1.00  0.00     0.051 A 
ATOM      6  C   UNL     1      -4.384   0.963 -30.741  1.00  0.00     0.157 A 
ATOM      7  C   UNL     1      -6.333   2.341 -31.147  1.00  0.00     0.058 A 
ATOM      8  C   UNL     1      -4.982   2.216 -30.850  1.00  0.00     0.157 A 
BRANCH   6   9
ATOM      9  O   UNL     1      -3.050   0.919 -30.447  1.00  0.00    -0.504 OA
ATOM     10  H   UNL     1      -2.602   1.607 -30.970  1.00  0.00     0.293 HD
ENDBRANCH   6   9
BRANCH   8  11
ATOM     11  O   UNL     1      -4.235   3.345 -30.667  1.00  0.00    -0.504 OA
ATOM     12  H   UNL     1      -3.898   3.270 -29.752  1.00  0.00     0.293 HD
ENDBRANCH   8  11
ENDBRANCH   1   3
BRANCH   2  13
ATOM     13  C   UNL     1     -10.543   0.770 -32.965  1.00  0.00     0.328 C 
ATOM     14  O   UNL     1     -11.330  -0.153 -33.076  1.00  0.00    -0.247 OA
BRANCH  13  15
ATOM     15  O   UNL     1     -10.903   2.064 -33.062  1.00  0.00    -0.478 OA
ATOM     16  H   UNL     1     -11.508   2.279 -33.795  1.00  0.00     0.297 HD
ENDBRANCH  13  15
ENDBRANCH   2  13
TORSDOF 5
ENDMDL
MODEL 8
REMARK VINA RESULT:      -6.1     15.521     19.105
REMARK SMILES O=C(O)/C=C/c1ccc(O)c(O)c1
REMARK SMILES IDX 5 1 4 2 6 3 7 4 8 5 9 6 13 7 11 8 10 9 12 11 2 13 1 14 3 15
REMARK H PARENT 10 10 12 12 3 16
ROOT
ATOM      1  C   UNL     1      -6.155  -0.296 -31.092  1.00  0.00     0.016 C 
ATOM      2  C   UNL     1      -4.955   0.261 -31.318  1.00  0.00     0.094 C 
ENDROOT
BRANCH   1   3
ATOM      3  C   UNL     1      -7.430   0.275 -31.550  1.00  0.00    -0.021 A 
ATOM      4  C   UNL     1      -7.427   1.102 -32.687  1.00  0.00     0.012 A 
ATOM      5  C   UNL     1      -8.613   1.655 -33.181  1.00  0.00     0.051 A 
ATOM      6  C   UNL     1      -9.810   1.368 -32.539  1.00  0.00     0.157 A 
ATOM      7  C   UNL     1      -8.650  -0.016 -30.927  1.00  0.00     0.058 A 
ATOM      8  C   UNL     1      -9.824   0.537 -31.422  1.00  0.00     0.157 A 
BRANCH   6   9
ATOM      9  O   UNL     1     -11.004   1.875 -32.970  1.00  0.00    -0.504 OA
ATOM     10  H   UNL     1     -11.467   2.255 -32.202  1.00  0.00     0.293 HD
ENDBRANCH   6   9
BRANCH   8  11
ATOM     11  O   UNL     1     -11.006   0.253 -30.800  1.00  0.00    -0.504 OA
ATOM     12  H   UNL     1     -11.530   1.075 -30.883  1.00  0.00     0.293 HD
ENDBRANCH   8  11
ENDBRANCH   1   3
BRANCH   2  13
ATOM     13  C   UNL     1      -3.740  -0.420 -30.826  1.00  0.00     0.328 C 
ATOM     14  O   UNL     1      -3.483  -0.617 -29.651  1.00  0.00    -0.247 OA
BRANCH  13  15
ATOM     15  O   UNL     1      -2.933  -0.807 -31.833  1.00  0.00    -0.478 OA
ATOM     16  H   UNL     1      -3.090  -0.369 -32.689  1.00  0.00     0.297 HD
ENDBRANCH  13  15
ENDBRANCH   2  13
TORSDOF 5
ENDMDL
MODEL 9
REMARK VINA RESULT:      -5.9     12.962     14.183
REMARK SMILES O=C(O)/C=C/c1ccc(O)c(O)c1
REMARK SMILES IDX 5 1 4 2 6 3 7 4 8 5 9 6 13 7 11 8 10 9 12 11 2 13 1 14 3 15
REMARK H PARENT 10 10 12 12 3 16
ROOT
ATOM      1  C   UNL     1      -4.602  -0.360 -25.900  1.00  0.00     0.016 C 
ATOM      2  C   UNL     1      -5.817  -0.918 -25.785  1.00  0.00     0.094 C 
ENDROOT
BRANCH   1   3
ATOM      3  C   UNL     1      -3.866  -0.240 -27.167  1.00  0.00    -0.021 A 
ATOM      4  C   UNL     1      -2.871   0.748 -27.276  1.00  0.00     0.012 A 
ATOM      5  C   UNL     1      -2.123   0.893 -28.449  1.00  0.00     0.051 A 
ATOM      6  C   UNL     1      -2.365   0.037 -29.514  1.00  0.00     0.157 A 
ATOM      7  C   UNL     1      -4.082  -1.106 -28.247  1.00  0.00     0.058 A 
ATOM      8  C   UNL     1      -3.336  -0.954 -29.409  1.00  0.00     0.157 A 
BRANCH   6   9
ATOM      9  O   UNL     1      -1.670   0.124 -30.688  1.00  0.00    -0.504 OA
ATOM     10  H   UNL     1      -1.430   1.057 -30.830  1.00  0.00     0.293 HD
ENDBRANCH   6   9
BRANCH   8  11
ATOM     11  O   UNL     1      -3.564  -1.799 -30.458  1.00  0.00    -0.504 OA
ATOM     12  H   UNL     1      -4.537  -1.816 -30.552  1.00  0.00     0.293 HD
ENDBRANCH   8  11
ENDBRANCH   1   3
BRANCH   2  13
ATOM     13  C   UNL     1      -6.468  -0.962 -24.459  1.00  0.00     0.328 C 
ATOM     14  O   UNL     1      -6.993  -0.007 -23.914  1.00  0.00    -0.247 OA
BRANCH  13  15
ATOM     15  O   UNL     1      -6.418  -2.191 -23.911  1.00  0.00    -0.478 OA
ATOM     16  H   UNL     1      -6.530  -2.225 -22.944  1.00  0.00     0.297 HD
ENDBRANCH  13  15
ENDBRANCH   2  13
TORSDOF 5
ENDMDL
MODEL 10
REMARK VINA RESULT:      -5.9      2.063      3.025
REMARK SMILES O=C(O)/C=C/c1ccc(O)c(O)c1
REMARK SMILES IDX 5 1 4 2 6 3 7 4 8 5 9 6 13 7 11 8 10 9 12 11 2 13 1 14 3 15
REMARK H PARENT 10 10 12 12 3 16
ROOT
ATOM      1  C   UNL     1       7.802  -1.368 -19.163  1.00  0.00     0.016 C 
ATOM      2  C   UNL     1       6.524  -1.521 -19.545  1.00  0.00     0.094 C 
ENDROOT
BRANCH   1   3
ATOM      3  C   UNL     1       8.227  -0.576 -18.000  1.00  0.00    -0.021 A 
ATOM      4  C   UNL     1       7.453   0.536 -17.624  1.00  0.00     0.012 A 
ATOM      5  C   UNL     1       7.797   1.312 -16.512  1.00  0.00     0.051 A 
ATOM      6  C   UNL     1       8.915   0.966 -15.767  1.00  0.00     0.157 A 
ATOM      7  C   UNL     1       9.342  -0.919 -17.224  1.00  0.00     0.058 A 
ATOM      8  C   UNL     1       9.678  -0.143 -16.122  1.00  0.00     0.157 A 
BRANCH   6   9
ATOM      9  O   UNL     1       9.306   1.681 -14.669  1.00  0.00    -0.504 OA
ATOM     10  H   UNL     1      10.197   2.035 -14.839  1.00  0.00     0.293 HD
ENDBRANCH   6   9
BRANCH   8  11
ATOM     11  O   UNL     1      10.773  -0.482 -15.380  1.00  0.00    -0.504 OA
ATOM     12  H   UNL     1      10.547  -0.204 -14.469  1.00  0.00     0.293 HD
ENDBRANCH   8  11
ENDBRANCH   1   3
BRANCH   2  13
ATOM     13  C   UNL     1       6.219  -2.361 -20.721  1.00  0.00     0.328 C 
ATOM     14  O   UNL     1       5.592  -1.986 -21.696  1.00  0.00    -0.247 OA
BRANCH  13  15
ATOM     15  O   UNL     1       6.717  -3.606 -20.598  1.00  0.00    -0.478 OA
ATOM     16  H   UNL     1       7.158  -3.964 -21.390  1.00  0.00     0.297 HD
ENDBRANCH  13  15
ENDBRANCH   2  13
TORSDOF 5
ENDMDL
