MODEL 1
REMARK VINA RESULT:      -6.3      0.000      0.000
REMARK SMILES O=C(O)/C=C\c1ccccc1[O-]
REMARK SMILES IDX 5 1 4 2 6 3 8 4 9 5 7 6 10 7 11 8 12 9 2 10 1 11 3 12
REMARK H PARENT 3 13
ROOT
ATOM      1  C   UNL     1      -3.555  -8.985 -27.544  1.00  0.00     0.015 C 
ATOM      2  C   UNL     1      -4.836  -9.242 -27.237  1.00  0.00     0.094 C 
ENDROOT
BRANCH   1   3
ATOM      3  C   UNL     1      -2.316  -9.735 -27.230  1.00  0.00    -0.033 A 
ATOM      4  C   UNL     1      -0.900 -11.670 -27.679  1.00  0.00     0.001 A 
ATOM      5  C   UNL     1       0.047 -11.161 -26.805  1.00  0.00    -0.001 A 
ATOM      6  C   UNL     1      -2.071 -10.954 -27.898  1.00  0.00     0.007 A 
ATOM      7  C   UNL     1      -0.182  -9.935 -26.169  1.00  0.00    -0.008 A 
ATOM      8  C   UNL     1      -1.348  -9.159 -26.351  1.00  0.00    -0.102 A 
ATOM      9  O   UNL     1      -1.478  -8.032 -25.754  1.00  0.00    -0.872 OA
ENDBRANCH   1   3
BRANCH   2  10
ATOM     10  C   UNL     1      -5.421 -10.333 -26.452  1.00  0.00     0.328 C 
ATOM     11  O   UNL     1      -5.424 -11.500 -26.813  1.00  0.00    -0.247 OA
BRANCH  10  12
ATOM     12  O   UNL     1      -6.040  -9.957 -25.329  1.00  0.00    -0.478 OA
ATOM     13  H   UNL     1      -6.708 -10.646 -25.161  1.00  0.00     0.297 HD
ENDBRANCH  10  12
ENDBRANCH   2  10
TORSDOF 3
ENDMDL
MODEL 2
REMARK VINA RESULT:      -6.1     14.178     16.299
REMARK SMILES O=C(O)/C=C\c1ccccc1[O-]
REMARK SMILES IDX 5 1 4 2 6 3 8 4 9 5 7 6 10 7 11 8 12 9 2 10 1 11 3 12
REMARK H PARENT 3 13
ROOT
ATOM      1  C   UNL     1       6.652  -0.665 -18.959  1.00  0.00     0.015 C 
ATOM      2  C   UNL     1       6.349  -1.625 -19.847  1.00  0.00     0.094 C 
ENDROOT
BRANCH   1   3
ATOM      3  C   UNL     1       7.540  -0.690 -17.773  1.00  0.00    -0.033 A 
ATOM      4  C   UNL     1       9.551   0.151 -16.678  1.00  0.00     0.001 A 
ATOM      5  C   UNL     1       9.215  -0.567 -15.542  1.00  0.00    -0.001 A 
ATOM      6  C   UNL     1       8.711   0.097 -17.785  1.00  0.00     0.007 A 
ATOM      7  C   UNL     1       8.035  -1.321 -15.520  1.00  0.00    -0.008 A 
ATOM      8  C   UNL     1       7.139  -1.414 -16.609  1.00  0.00    -0.102 A 
ATOM      9  O   UNL     1       6.064  -2.104 -16.507  1.00  0.00    -0.872 OA
ENDBRANCH   1   3
BRANCH   2  10
ATOM     10  C   UNL     1       6.772  -3.028 -19.907  1.00  0.00     0.328 C 
ATOM     11  O   UNL     1       7.472  -3.486 -20.796  1.00  0.00    -0.247 OA
BRANCH  10  12
ATOM     12  O   UNL     1       6.267  -3.815 -18.952  1.00  0.00    -0.478 OA
ATOM     13  H   UNL     1       6.549  -3.413 -18.112  1.00  0.00     0.297 HD
ENDBRANCH  10  12
ENDBRANCH   2  10
TORSDOF 3
ENDMDL
MODEL 3
REMARK VINA RESULT:      -6.1     12.014     13.383
REMARK SMILES O=C(O)/C=C\c1ccccc1[O-]
REMARK SMILES IDX 5 1 4 2 6 3 8 4 9 5 7 6 10 7 11 8 12 9 2 10 1 11 3 12
REMARK H PARENT 3 13
ROOT
ATOM      1  C   UNL     1      -8.058   0.509 -33.459  1.00  0.00     0.015 C 
ATOM      2  C   UNL     1      -9.317   0.470 -33.922  1.00  0.00     0.094 C 
ENDROOT
BRANCH   1   3
ATOM      3  C   UNL     1      -7.538   0.729 -32.089  1.00  0.00    -0.033 A 
ATOM      4  C   UNL     1      -6.723   2.306 -30.415  1.00  0.00     0.001 A 
ATOM      5  C   UNL     1      -6.668   1.275 -29.492  1.00  0.00    -0.001 A 
ATOM      6  C   UNL     1      -7.167   2.035 -31.705  1.00  0.00     0.007 A 
ATOM      7  C   UNL     1      -7.069  -0.014 -29.865  1.00  0.00    -0.008 A 
ATOM      8  C   UNL     1      -7.532  -0.352 -31.156  1.00  0.00    -0.102 A 
ATOM      9  O   UNL     1      -7.906  -1.550 -31.417  1.00  0.00    -0.872 OA
ENDBRANCH   1   3
BRANCH   2  10
ATOM     10  C   UNL     1     -10.590   0.675 -33.224  1.00  0.00     0.328 C 
ATOM     11  O   UNL     1     -11.364  -0.228 -32.950  1.00  0.00    -0.247 OA
BRANCH  10  12
ATOM     12  O   UNL     1     -10.901   1.950 -32.971  1.00  0.00    -0.478 OA
ATOM     13  H   UNL     1     -10.855   2.402 -33.833  1.00  0.00     0.297 HD
ENDBRANCH  10  12
ENDBRANCH   2  10
TORSDOF 3
ENDMDL
MODEL 4
REMARK VINA RESULT:      -6.0     14.385     16.710
REMARK SMILES O=C(O)/C=C\c1ccccc1[O-]
REMARK SMILES IDX 5 1 4 2 6 3 8 4 9 5 7 6 10 7 11 8 12 9 2 10 1 11 3 12
REMARK H PARENT 3 13
ROOT
ATOM      1  C   UNL     1       7.220   0.217 -17.350  1.00  0.00     0.015 C 
ATOM      2  C   UNL     1       8.249   0.411 -16.510  1.00  0.00     0.094 C 
ENDROOT
BRANCH   1   3
ATOM      3  C   UNL     1       6.798  -0.988 -18.102  1.00  0.00    -0.033 A 
ATOM      4  C   UNL     1       6.758  -2.194 -20.222  1.00  0.00     0.001 A 
ATOM      5  C   UNL     1       6.161  -3.268 -19.583  1.00  0.00    -0.001 A 
ATOM      6  C   UNL     1       7.084  -1.063 -19.481  1.00  0.00     0.007 A 
ATOM      7  C   UNL     1       5.909  -3.206 -18.207  1.00  0.00    -0.008 A 
ATOM      8  C   UNL     1       6.220  -2.089 -17.399  1.00  0.00    -0.102 A 
ATOM      9  O   UNL     1       5.982  -2.114 -16.140  1.00  0.00    -0.872 OA
ENDBRANCH   1   3
BRANCH   2  10
ATOM     10  C   UNL     1       9.317  -0.504 -16.095  1.00  0.00     0.328 C 
ATOM     11  O   UNL     1      10.503  -0.298 -16.303  1.00  0.00    -0.247 OA
BRANCH  10  12
ATOM     12  O   UNL     1       8.904  -1.644 -15.535  1.00  0.00    -0.478 OA
ATOM     13  H   UNL     1       8.398  -1.375 -14.747  1.00  0.00     0.297 HD
ENDBRANCH  10  12
ENDBRANCH   2  10
TORSDOF 3
ENDMDL
MODEL 5
REMARK VINA RESULT:      -5.8     10.108     11.587
REMARK SMILES O=C(O)/C=C\c1ccccc1[O-]
REMARK SMILES IDX 5 1 4 2 6 3 8 4 9 5 7 6 10 7 11 8 12 9 2 10 1 11 3 12
REMARK H PARENT 3 13
ROOT
ATOM      1  C   UNL     1      -2.687   1.879 -27.885  1.00  0.00     0.015 C 
ATOM      2  C   UNL     1      -3.130   2.998 -28.479  1.00  0.00     0.094 C 
ENDROOT
BRANCH   1   3
ATOM      3  C   UNL     1      -3.164   0.480 -27.979  1.00  0.00    -0.033 A 
ATOM      4  C   UNL     1      -4.532  -1.306 -27.035  1.00  0.00     0.001 A 
ATOM      5  C   UNL     1      -4.222  -2.100 -28.127  1.00  0.00    -0.001 A 
ATOM      6  C   UNL     1      -4.013  -0.018 -26.968  1.00  0.00     0.007 A 
ATOM      7  C   UNL     1      -3.407  -1.593 -29.147  1.00  0.00    -0.008 A 
ATOM      8  C   UNL     1      -2.853  -0.294 -29.139  1.00  0.00    -0.102 A 
ATOM      9  O   UNL     1      -2.135   0.111 -30.120  1.00  0.00    -0.872 OA
ENDBRANCH   1   3
BRANCH   2  10
ATOM     10  C   UNL     1      -4.263   3.203 -29.388  1.00  0.00     0.328 C 
ATOM     11  O   UNL     1      -5.284   3.794 -29.073  1.00  0.00    -0.247 OA
BRANCH  10  12
ATOM     12  O   UNL     1      -4.145   2.620 -30.584  1.00  0.00    -0.478 OA
ATOM     13  H   UNL     1      -3.415   1.982 -30.489  1.00  0.00     0.297 HD
ENDBRANCH  10  12
ENDBRANCH   2  10
TORSDOF 3
ENDMDL
MODEL 6
REMARK VINA RESULT:      -5.7      9.449     10.445
REMARK SMILES O=C(O)/C=C\c1ccccc1[O-]
REMARK SMILES IDX 5 1 4 2 6 3 8 4 9 5 7 6 10 7 11 8 12 9 2 10 1 11 3 12
REMARK H PARENT 3 13
ROOT
ATOM      1  C   UNL     1      -3.232  -1.680 -29.462  1.00  0.00     0.015 C 
ATOM      2  C   UNL     1      -3.354  -1.224 -30.719  1.00  0.00     0.094 C 
ENDROOT
BRANCH   1   3
ATOM      3  C   UNL     1      -3.805  -1.177 -28.191  1.00  0.00    -0.033 A 
ATOM      4  C   UNL     1      -5.307  -1.557 -26.307  1.00  0.00     0.001 A 
ATOM      5  C   UNL     1      -4.853  -0.383 -25.728  1.00  0.00    -0.001 A 
ATOM      6  C   UNL     1      -4.776  -1.956 -27.528  1.00  0.00     0.007 A 
ATOM      7  C   UNL     1      -3.864   0.373 -26.371  1.00  0.00    -0.008 A 
ATOM      8  C   UNL     1      -3.283   0.019 -27.609  1.00  0.00    -0.102 A 
ATOM      9  O   UNL     1      -2.364   0.747 -28.126  1.00  0.00    -0.872 OA
ENDBRANCH   1   3
BRANCH   2  10
ATOM     10  C   UNL     1      -4.066  -0.051 -31.236  1.00  0.00     0.328 C 
ATOM     11  O   UNL     1      -5.263   0.135 -31.084  1.00  0.00    -0.247 OA
BRANCH  10  12
ATOM     12  O   UNL     1      -3.327   0.784 -31.972  1.00  0.00    -0.478 OA
ATOM     13  H   UNL     1      -2.991   1.450 -31.346  1.00  0.00     0.297 HD
ENDBRANCH  10  12
ENDBRANCH   2  10
TORSDOF 3
ENDMDL
MODEL 7
REMARK VINA RESULT:      -5.7      1.518      2.187
REMARK SMILES O=C(O)/C=C\c1ccccc1[O-]
REMARK SMILES IDX 5 1 4 2 6 3 8 4 9 5 7 6 10 7 11 8 12 9 2 10 1 11 3 12
REMARK H PARENT 3 13
ROOT
ATOM      1  C   UNL     1      -2.702  -9.321 -28.301  1.00  0.00     0.015 C 
ATOM      2  C   UNL     1      -4.031  -9.421 -28.139  1.00  0.00     0.094 C 
ENDROOT
BRANCH   1   3
ATOM      3  C   UNL     1      -1.586  -9.748 -27.424  1.00  0.00    -0.033 A 
ATOM      4  C   UNL     1      -0.148  -9.253 -25.517  1.00  0.00     0.001 A 
ATOM      5  C   UNL     1       0.421 -10.510 -25.639  1.00  0.00    -0.001 A 
ATOM      6  C   UNL     1      -1.155  -8.879 -26.400  1.00  0.00     0.007 A 
ATOM      7  C   UNL     1      -0.031 -11.385 -26.635  1.00  0.00    -0.008 A 
ATOM      8  C   UNL     1      -1.052 -11.066 -27.558  1.00  0.00    -0.102 A 
ATOM      9  O   UNL     1      -1.431 -11.928 -28.428  1.00  0.00    -0.872 OA
ENDBRANCH   1   3
BRANCH   2  10
ATOM     10  C   UNL     1      -4.811  -9.953 -27.017  1.00  0.00     0.328 C 
ATOM     11  O   UNL     1      -4.736 -11.109 -26.629  1.00  0.00    -0.247 OA
BRANCH  10  12
ATOM     12  O   UNL     1      -5.691  -9.102 -26.482  1.00  0.00    -0.478 OA
ATOM     13  H   UNL     1      -6.176  -9.620 -25.815  1.00  0.00     0.297 HD
ENDBRANCH  10  12
ENDBRANCH   2  10
TORSDOF 3
ENDMDL
MODEL 8
REMARK VINA RESULT:      -5.7     11.689     12.974
REMARK SMILES O=C(O)/C=C\c1ccccc1[O-]
REMARK SMILES IDX 5 1 4 2 6 3 8 4 9 5 7 6 10 7 11 8 12 9 2 10 1 11 3 12
REMARK H PARENT 3 13
ROOT
ATOM      1  C   UNL     1      -8.068   0.348 -33.314  1.00  0.00     0.015 C 
ATOM      2  C   UNL     1      -9.263   0.624 -33.859  1.00  0.00     0.094 C 
ENDROOT
BRANCH   1   3
ATOM      3  C   UNL     1      -7.690   0.047 -31.912  1.00  0.00    -0.033 A 
ATOM      4  C   UNL     1      -7.524  -1.603 -30.124  1.00  0.00     0.001 A 
ATOM      5  C   UNL     1      -6.898  -0.657 -29.329  1.00  0.00    -0.001 A 
ATOM      6  C   UNL     1      -7.909  -1.254 -31.413  1.00  0.00     0.007 A 
ATOM      7  C   UNL     1      -6.650   0.624 -29.837  1.00  0.00    -0.008 A 
ATOM      8  C   UNL     1      -7.013   1.039 -31.138  1.00  0.00    -0.102 A 
ATOM      9  O   UNL     1      -6.732   2.221 -31.544  1.00  0.00    -0.872 OA
ENDBRANCH   1   3
BRANCH   2  10
ATOM     10  C   UNL     1     -10.582   0.758 -33.232  1.00  0.00     0.328 C 
ATOM     11  O   UNL     1     -11.318  -0.188 -32.996  1.00  0.00    -0.247 OA
BRANCH  10  12
ATOM     12  O   UNL     1     -10.977   2.013 -33.002  1.00  0.00    -0.478 OA
ATOM     13  H   UNL     1     -11.488   1.973 -32.174  1.00  0.00     0.297 HD
ENDBRANCH  10  12
ENDBRANCH   2  10
TORSDOF 3
ENDMDL
MODEL 9
REMARK VINA RESULT:      -5.7      9.170     10.109
REMARK SMILES O=C(O)/C=C\c1ccccc1[O-]
REMARK SMILES IDX 5 1 4 2 6 3 8 4 9 5 7 6 10 7 11 8 12 9 2 10 1 11 3 12
REMARK H PARENT 3 13
ROOT
ATOM      1  C   UNL     1      -5.191  -2.068 -28.430  1.00  0.00     0.015 C 
ATOM      2  C   UNL     1      -6.383  -2.104 -29.044  1.00  0.00     0.094 C 
ENDROOT
BRANCH   1   3
ATOM      3  C   UNL     1      -4.121  -1.042 -28.454  1.00  0.00    -0.033 A 
ATOM      4  C   UNL     1      -2.868   0.667 -27.246  1.00  0.00     0.001 A 
ATOM      5  C   UNL     1      -2.049   0.827 -28.352  1.00  0.00    -0.001 A 
ATOM      6  C   UNL     1      -3.893  -0.271 -27.295  1.00  0.00     0.007 A 
ATOM      7  C   UNL     1      -2.255   0.037 -29.490  1.00  0.00    -0.008 A 
ATOM      8  C   UNL     1      -3.275  -0.934 -29.600  1.00  0.00    -0.102 A 
ATOM      9  O   UNL     1      -3.388  -1.638 -30.665  1.00  0.00    -0.872 OA
ENDBRANCH   1   3
BRANCH   2  10
ATOM     10  C   UNL     1      -6.999  -1.152 -29.974  1.00  0.00     0.328 C 
ATOM     11  O   UNL     1      -8.042  -0.559 -29.743  1.00  0.00    -0.247 OA
BRANCH  10  12
ATOM     12  O   UNL     1      -6.383  -1.028 -31.153  1.00  0.00    -0.478 OA
ATOM     13  H   UNL     1      -5.770  -0.279 -31.045  1.00  0.00     0.297 HD
ENDBRANCH  10  12
ENDBRANCH   2  10
TORSDOF 3
ENDMDL
MODEL 10
REMARK VINA RESULT:      -5.6      2.595      4.649
REMARK SMILES O=C(O)/C=C\c1ccccc1[O-]
REMARK SMILES IDX 5 1 4 2 6 3 8 4 9 5 7 6 10 7 11 8 12 9 2 10 1 11 3 12
REMARK H PARENT 3 13
ROOT
ATOM      1  C   UNL     1      -0.084  -9.140 -27.107  1.00  0.00     0.015 C 
ATOM      2  C   UNL     1       0.858  -9.756 -26.376  1.00  0.00     0.094 C 
ENDROOT
BRANCH   1   3
ATOM      3  C   UNL     1      -1.545  -9.370 -27.194  1.00  0.00    -0.033 A 
ATOM      4  C   UNL     1      -3.800  -8.493 -26.877  1.00  0.00     0.001 A 
ATOM      5  C   UNL     1      -4.313  -9.653 -27.435  1.00  0.00    -0.001 A 
ATOM      6  C   UNL     1      -2.421  -8.349 -26.768  1.00  0.00     0.007 A 
ATOM      7  C   UNL     1      -3.442 -10.651 -27.889  1.00  0.00    -0.008 A 
ATOM      8  C   UNL     1      -2.034 -10.563 -27.810  1.00  0.00    -0.102 A 
ATOM      9  O   UNL     1      -1.299 -11.507 -28.269  1.00  0.00    -0.872 OA
ENDBRANCH   1   3
BRANCH   2  10
ATOM     10  C   UNL     1       0.749 -10.890 -25.452  1.00  0.00     0.328 C 
ATOM     11  O   UNL     1       0.211 -11.948 -25.740  1.00  0.00    -0.247 OA
BRANCH  10  12
ATOM     12  O   UNL     1       1.210 -10.665 -24.219  1.00  0.00    -0.478 OA
ATOM     13  H   UNL     1       2.111 -11.036 -24.210  1.00  0.00     0.297 HD
ENDBRANCH  10  12
ENDBRANCH   2  10
TORSDOF 3
ENDMDL
