MODEL 1
REMARK VINA RESULT:      -5.6      0.000      0.000
REMARK SMILES C=CC[S@@](=O)C[C@H](N)C(=O)O
REMARK SMILES IDX 6 1 4 2 5 3 3 4 2 5 1 6 7 7 9 8 10 9 11 10 8 12
REMARK H PARENT 11 11 8 13 8 14
ROOT
ATOM      1  C   UNL     1      -3.647 -10.587 -27.043  1.00  0.00     0.136 C 
ENDROOT
BRANCH   1   2
ATOM      2  S   UNL     1      -2.678  -9.061 -27.316  1.00  0.00     0.027 S 
ATOM      3  O   UNL     1      -2.960  -8.606 -28.720  1.00  0.00    -0.259 OA
BRANCH   2   4
ATOM      4  C   UNL     1      -1.031  -9.857 -27.332  1.00  0.00     0.131 C 
BRANCH   4   5
ATOM      5  C   UNL     1      -0.674 -10.321 -25.952  1.00  0.00    -0.021 C 
ATOM      6  C   UNL     1       0.575 -10.535 -25.517  1.00  0.00     0.005 C 
ENDBRANCH   4   5
ENDBRANCH   2   4
ENDBRANCH   1   2
BRANCH   1   7
ATOM      7  C   UNL     1      -5.155 -10.338 -27.153  1.00  0.00     0.174 C 
BRANCH   7   8
ATOM      8  C   UNL     1      -5.959 -11.320 -26.285  1.00  0.00     0.321 C 
ATOM      9  O   UNL     1      -5.996 -11.328 -25.067  1.00  0.00    -0.251 OA
BRANCH   8  10
ATOM     10  O   UNL     1      -6.706 -12.170 -27.036  1.00  0.00    -0.480 OA
ATOM     11  H   UNL     1      -7.319 -12.724 -26.513  1.00  0.00     0.296 HD
ENDBRANCH   8  10
ENDBRANCH   7   8
BRANCH   7  12
ATOM     12  N   UNL     1      -5.486  -8.952 -26.742  1.00  0.00    -0.318 NA
ATOM     13  H   UNL     1      -6.314  -8.976 -26.137  1.00  0.00     0.119 HD
ATOM     14  H   UNL     1      -5.774  -8.389 -27.542  1.00  0.00     0.119 HD
ENDBRANCH   7  12
ENDBRANCH   1   7
TORSDOF 7
ENDMDL
MODEL 2
REMARK VINA RESULT:      -5.5      4.114      5.596
REMARK SMILES C=CC[S@@](=O)C[C@H](N)C(=O)O
REMARK SMILES IDX 6 1 4 2 5 3 3 4 2 5 1 6 7 7 9 8 10 9 11 10 8 12
REMARK H PARENT 11 11 8 13 8 14
ROOT
ATOM      1  C   UNL     1       0.427 -10.393 -26.252  1.00  0.00     0.136 C 
ENDROOT
BRANCH   1   2
ATOM      2  S   UNL     1      -1.227 -10.707 -26.964  1.00  0.00     0.027 S 
ATOM      3  O   UNL     1      -1.029 -11.586 -28.166  1.00  0.00    -0.259 OA
BRANCH   2   4
ATOM      4  C   UNL     1      -1.516  -9.010 -27.583  1.00  0.00     0.131 C 
BRANCH   4   5
ATOM      5  C   UNL     1      -2.943  -8.859 -28.017  1.00  0.00    -0.021 C 
ATOM      6  C   UNL     1      -3.955  -9.627 -27.593  1.00  0.00     0.005 C 
ENDBRANCH   4   5
ENDBRANCH   2   4
ENDBRANCH   1   2
BRANCH   1   7
ATOM      7  C   UNL     1       0.649 -11.166 -24.948  1.00  0.00     0.174 C 
BRANCH   7   8
ATOM      8  C   UNL     1       0.836 -12.671 -25.203  1.00  0.00     0.321 C 
ATOM      9  O   UNL     1       1.267 -13.171 -26.228  1.00  0.00    -0.251 OA
BRANCH   8  10
ATOM     10  O   UNL     1       0.525 -13.415 -24.110  1.00  0.00    -0.480 OA
ATOM     11  H   UNL     1      -0.366 -13.234 -23.750  1.00  0.00     0.296 HD
ENDBRANCH   8  10
ENDBRANCH   7   8
BRANCH   7  12
ATOM     12  N   UNL     1       1.840 -10.649 -24.231  1.00  0.00    -0.318 NA
ATOM     13  H   UNL     1       1.650  -9.688 -23.927  1.00  0.00     0.119 HD
ATOM     14  H   UNL     1       2.639 -10.561 -24.859  1.00  0.00     0.119 HD
ENDBRANCH   7  12
ENDBRANCH   1   7
TORSDOF 7
ENDMDL
MODEL 3
REMARK VINA RESULT:      -5.5      3.168      5.161
REMARK SMILES C=CC[S@@](=O)C[C@H](N)C(=O)O
REMARK SMILES IDX 6 1 4 2 5 3 3 4 2 5 1 6 7 7 9 8 10 9 11 10 8 12
REMARK H PARENT 11 11 8 13 8 14
ROOT
ATOM      1  C   UNL     1      -1.439  -9.330 -26.281  1.00  0.00     0.136 C 
ENDROOT
BRANCH   1   2
ATOM      2  S   UNL     1      -2.121  -9.636 -27.949  1.00  0.00     0.027 S 
ATOM      3  O   UNL     1      -2.663  -8.327 -28.450  1.00  0.00    -0.259 OA
BRANCH   2   4
ATOM      4  C   UNL     1      -3.554 -10.638 -27.410  1.00  0.00     0.131 C 
BRANCH   4   5
ATOM      5  C   UNL     1      -4.737  -9.750 -27.167  1.00  0.00    -0.021 C 
ATOM      6  C   UNL     1      -5.731 -10.019 -26.312  1.00  0.00     0.005 C 
ENDBRANCH   4   5
ENDBRANCH   2   4
ENDBRANCH   1   2
BRANCH   1   7
ATOM      7  C   UNL     1       0.080  -9.531 -26.236  1.00  0.00     0.174 C 
BRANCH   7   8
ATOM      8  C   UNL     1       0.452 -10.980 -25.882  1.00  0.00     0.321 C 
ATOM      9  O   UNL     1       0.229 -11.961 -26.571  1.00  0.00    -0.251 OA
BRANCH   8  10
ATOM     10  O   UNL     1       1.139 -11.059 -24.713  1.00  0.00    -0.480 OA
ATOM     11  H   UNL     1       1.688 -10.272 -24.524  1.00  0.00     0.296 HD
ENDBRANCH   8  10
ENDBRANCH   7   8
BRANCH   7  12
ATOM     12  N   UNL     1       0.691  -9.183 -27.542  1.00  0.00    -0.318 NA
ATOM     13  H   UNL     1       0.270  -8.312 -27.881  1.00  0.00     0.119 HD
ATOM     14  H   UNL     1       0.453  -9.872 -28.255  1.00  0.00     0.119 HD
ENDBRANCH   7  12
ENDBRANCH   1   7
TORSDOF 7
ENDMDL
MODEL 4
REMARK VINA RESULT:      -5.2     14.249     16.104
REMARK SMILES C=CC[S@@](=O)C[C@H](N)C(=O)O
REMARK SMILES IDX 6 1 4 2 5 3 3 4 2 5 1 6 7 7 9 8 10 9 11 10 8 12
REMARK H PARENT 11 11 8 13 8 14
ROOT
ATOM      1  C   UNL     1       6.437  -2.012 -18.698  1.00  0.00     0.136 C 
ENDROOT
BRANCH   1   2
ATOM      2  S   UNL     1       6.353  -3.047 -20.202  1.00  0.00     0.027 S 
ATOM      3  O   UNL     1       7.767  -3.383 -20.584  1.00  0.00    -0.259 OA
BRANCH   2   4
ATOM      4  C   UNL     1       5.791  -1.727 -21.336  1.00  0.00     0.131 C 
BRANCH   4   5
ATOM      5  C   UNL     1       4.977  -2.318 -22.447  1.00  0.00    -0.021 C 
ATOM      6  C   UNL     1       4.916  -1.831 -23.692  1.00  0.00     0.005 C 
ENDBRANCH   4   5
ENDBRANCH   2   4
ENDBRANCH   1   2
BRANCH   1   7
ATOM      7  C   UNL     1       7.533  -0.945 -18.795  1.00  0.00     0.174 C 
BRANCH   7   8
ATOM      8  C   UNL     1       7.484   0.031 -17.608  1.00  0.00     0.321 C 
ATOM      9  O   UNL     1       6.808  -0.103 -16.603  1.00  0.00    -0.251 OA
BRANCH   8  10
ATOM     10  O   UNL     1       8.350   1.066 -17.764  1.00  0.00    -0.480 OA
ATOM     11  H   UNL     1       8.732   1.129 -18.662  1.00  0.00     0.296 HD
ENDBRANCH   8  10
ENDBRANCH   7   8
BRANCH   7  12
ATOM     12  N   UNL     1       8.874  -1.578 -18.841  1.00  0.00    -0.318 NA
ATOM     13  H   UNL     1       9.072  -1.997 -17.926  1.00  0.00     0.119 HD
ATOM     14  H   UNL     1       9.607  -0.880 -18.962  1.00  0.00     0.119 HD
ENDBRANCH   7  12
ENDBRANCH   1   7
TORSDOF 7
ENDMDL
MODEL 5
REMARK VINA RESULT:      -5.0     15.788     17.605
REMARK SMILES C=CC[S@@](=O)C[C@H](N)C(=O)O
REMARK SMILES IDX 6 1 4 2 5 3 3 4 2 5 1 6 7 7 9 8 10 9 11 10 8 12
REMARK H PARENT 11 11 8 13 8 14
ROOT
ATOM      1  C   UNL     1       7.812  -0.217 -18.055  1.00  0.00     0.136 C 
ENDROOT
BRANCH   1   2
ATOM      2  S   UNL     1       6.361  -1.260 -18.443  1.00  0.00     0.027 S 
ATOM      3  O   UNL     1       6.169  -2.195 -17.283  1.00  0.00    -0.259 OA
BRANCH   2   4
ATOM      4  C   UNL     1       7.148  -2.224 -19.784  1.00  0.00     0.131 C 
BRANCH   4   5
ATOM      5  C   UNL     1       6.097  -2.842 -20.655  1.00  0.00    -0.021 C 
ATOM      6  C   UNL     1       5.552  -2.256 -21.728  1.00  0.00     0.005 C 
ENDBRANCH   4   5
ENDBRANCH   2   4
ENDBRANCH   1   2
BRANCH   1   7
ATOM      7  C   UNL     1       7.877   0.146 -16.567  1.00  0.00     0.174 C 
BRANCH   7   8
ATOM      8  C   UNL     1       9.023  -0.588 -15.852  1.00  0.00     0.321 C 
ATOM      9  O   UNL     1      10.084  -0.092 -15.514  1.00  0.00    -0.251 OA
BRANCH   8  10
ATOM     10  O   UNL     1       8.702  -1.875 -15.563  1.00  0.00    -0.480 OA
ATOM     11  H   UNL     1       8.360  -2.378 -16.328  1.00  0.00     0.296 HD
ENDBRANCH   8  10
ENDBRANCH   7   8
BRANCH   7  12
ATOM     12  N   UNL     1       8.061   1.608 -16.395  1.00  0.00    -0.318 NA
ATOM     13  H   UNL     1       8.734   1.940 -17.095  1.00  0.00     0.119 HD
ATOM     14  H   UNL     1       8.502   1.821 -15.501  1.00  0.00     0.119 HD
ENDBRANCH   7  12
ENDBRANCH   1   7
TORSDOF 7
ENDMDL
MODEL 6
REMARK VINA RESULT:      -4.8     16.338     18.283
REMARK SMILES C=CC[S@@](=O)C[C@H](N)C(=O)O
REMARK SMILES IDX 6 1 4 2 5 3 3 4 2 5 1 6 7 7 9 8 10 9 11 10 8 12
REMARK H PARENT 11 11 8 13 8 14
ROOT
ATOM      1  C   UNL     1       7.567   0.115 -16.797  1.00  0.00     0.136 C 
ENDROOT
BRANCH   1   2
ATOM      2  S   UNL     1       6.281  -0.881 -17.631  1.00  0.00     0.027 S 
ATOM      3  O   UNL     1       6.126  -2.149 -16.841  1.00  0.00    -0.259 OA
BRANCH   2   4
ATOM      4  C   UNL     1       7.263  -1.292 -19.118  1.00  0.00     0.131 C 
BRANCH   4   5
ATOM      5  C   UNL     1       6.361  -1.791 -20.206  1.00  0.00    -0.021 C 
ATOM      6  C   UNL     1       6.377  -3.035 -20.701  1.00  0.00     0.005 C 
ENDBRANCH   4   5
ENDBRANCH   2   4
ENDBRANCH   1   2
BRANCH   1   7
ATOM      7  C   UNL     1       8.888  -0.650 -16.660  1.00  0.00     0.174 C 
BRANCH   7   8
ATOM      8  C   UNL     1      10.038   0.272 -16.225  1.00  0.00     0.321 C 
ATOM      9  O   UNL     1      11.136  -0.092 -15.839  1.00  0.00    -0.251 OA
BRANCH   8  10
ATOM     10  O   UNL     1       9.725   1.584 -16.380  1.00  0.00    -0.480 OA
ATOM     11  H   UNL     1       9.329   1.795 -17.248  1.00  0.00     0.296 HD
ENDBRANCH   8  10
ENDBRANCH   7   8
BRANCH   7  12
ATOM     12  N   UNL     1       8.753  -1.749 -15.671  1.00  0.00    -0.318 NA
ATOM     13  H   UNL     1       8.750  -1.345 -14.728  1.00  0.00     0.119 HD
ATOM     14  H   UNL     1       9.572  -2.357 -15.682  1.00  0.00     0.119 HD
ENDBRANCH   7  12
ENDBRANCH   1   7
TORSDOF 7
ENDMDL
MODEL 7
REMARK VINA RESULT:      -4.7     11.294     13.031
REMARK SMILES C=CC[S@@](=O)C[C@H](N)C(=O)O
REMARK SMILES IDX 6 1 4 2 5 3 3 4 2 5 1 6 7 7 9 8 10 9 11 10 8 12
REMARK H PARENT 11 11 8 13 8 14
ROOT
ATOM      1  C   UNL     1      -5.776  -0.056 -31.183  1.00  0.00     0.136 C 
ENDROOT
BRANCH   1   2
ATOM      2  S   UNL     1      -6.904   0.817 -32.327  1.00  0.00     0.027 S 
ATOM      3  O   UNL     1      -7.312   2.095 -31.650  1.00  0.00    -0.259 OA
BRANCH   2   4
ATOM      4  C   UNL     1      -8.308  -0.345 -32.167  1.00  0.00     0.131 C 
BRANCH   4   5
ATOM      5  C   UNL     1      -9.104  -0.363 -33.436  1.00  0.00    -0.021 C 
ATOM      6  C   UNL     1     -10.192   0.384 -33.667  1.00  0.00     0.005 C 
ENDBRANCH   4   5
ENDBRANCH   2   4
ENDBRANCH   1   2
BRANCH   1   7
ATOM      7  C   UNL     1      -4.401   0.616 -31.107  1.00  0.00     0.174 C 
BRANCH   7   8
ATOM      8  C   UNL     1      -3.261  -0.414 -31.153  1.00  0.00     0.321 C 
ATOM      9  O   UNL     1      -3.383  -1.619 -31.015  1.00  0.00    -0.251 OA
BRANCH   8  10
ATOM     10  O   UNL     1      -2.065   0.162 -31.440  1.00  0.00    -0.480 OA
ATOM     11  H   UNL     1      -1.592   0.501 -30.654  1.00  0.00     0.296 HD
ENDBRANCH   8  10
ENDBRANCH   7   8
BRANCH   7  12
ATOM     12  N   UNL     1      -4.227   1.575 -32.225  1.00  0.00    -0.318 NA
ATOM     13  H   UNL     1      -3.229   1.642 -32.449  1.00  0.00     0.119 HD
ATOM     14  H   UNL     1      -4.486   2.520 -31.943  1.00  0.00     0.119 HD
ENDBRANCH   7  12
ENDBRANCH   1   7
TORSDOF 7
ENDMDL
MODEL 8
REMARK VINA RESULT:      -4.7      3.960      5.369
REMARK SMILES C=CC[S@@](=O)C[C@H](N)C(=O)O
REMARK SMILES IDX 6 1 4 2 5 3 3 4 2 5 1 6 7 7 9 8 10 9 11 10 8 12
REMARK H PARENT 11 11 8 13 8 14
ROOT
ATOM      1  C   UNL     1      -0.662 -10.398 -25.940  1.00  0.00     0.136 C 
ENDROOT
BRANCH   1   2
ATOM      2  S   UNL     1      -0.899  -9.321 -27.398  1.00  0.00     0.027 S 
ATOM      3  O   UNL     1      -0.034  -8.110 -27.195  1.00  0.00    -0.259 OA
BRANCH   2   4
ATOM      4  C   UNL     1      -2.617  -8.823 -27.015  1.00  0.00     0.131 C 
BRANCH   4   5
ATOM      5  C   UNL     1      -3.576  -9.846 -27.542  1.00  0.00    -0.021 C 
ATOM      6  C   UNL     1      -4.779 -10.108 -27.017  1.00  0.00     0.005 C 
ENDBRANCH   4   5
ENDBRANCH   2   4
ENDBRANCH   1   2
BRANCH   1   7
ATOM      7  C   UNL     1       0.287 -11.565 -26.235  1.00  0.00     0.174 C 
BRANCH   7   8
ATOM      8  C   UNL     1       0.841 -12.189 -24.943  1.00  0.00     0.321 C 
ATOM      9  O   UNL     1       0.718 -13.353 -24.606  1.00  0.00    -0.251 OA
BRANCH   8  10
ATOM     10  O   UNL     1       1.566 -11.298 -24.218  1.00  0.00    -0.480 OA
ATOM     11  H   UNL     1       1.799 -11.616 -23.323  1.00  0.00     0.296 HD
ENDBRANCH   8  10
ENDBRANCH   7   8
BRANCH   7  12
ATOM     12  N   UNL     1      -0.408 -12.616 -27.017  1.00  0.00    -0.318 NA
ATOM     13  H   UNL     1      -0.830 -12.186 -27.846  1.00  0.00     0.119 HD
ATOM     14  H   UNL     1      -1.200 -12.997 -26.500  1.00  0.00     0.119 HD
ENDBRANCH   7  12
ENDBRANCH   1   7
TORSDOF 7
ENDMDL
MODEL 9
REMARK VINA RESULT:      -4.7     11.265     12.601
REMARK SMILES C=CC[S@@](=O)C[C@H](N)C(=O)O
REMARK SMILES IDX 6 1 4 2 5 3 3 4 2 5 1 6 7 7 9 8 10 9 11 10 8 12
REMARK H PARENT 11 11 8 13 8 14
ROOT
ATOM      1  C   UNL     1      -8.692  -1.016 -32.466  1.00  0.00     0.136 C 
ENDROOT
BRANCH   1   2
ATOM      2  S   UNL     1      -7.659  -0.705 -30.990  1.00  0.00     0.027 S 
ATOM      3  O   UNL     1      -6.249  -0.515 -31.472  1.00  0.00    -0.259 OA
BRANCH   2   4
ATOM      4  C   UNL     1      -7.765  -2.394 -30.298  1.00  0.00     0.131 C 
BRANCH   4   5
ATOM      5  C   UNL     1      -8.909  -3.132 -30.923  1.00  0.00    -0.021 C 
ATOM      6  C   UNL     1      -9.543  -4.173 -30.367  1.00  0.00     0.005 C 
ENDBRANCH   4   5
ENDBRANCH   2   4
ENDBRANCH   1   2
BRANCH   1   7
ATOM      7  C   UNL     1      -9.094   0.284 -33.171  1.00  0.00     0.174 C 
BRANCH   7   8
ATOM      8  C   UNL     1     -10.602   0.557 -33.044  1.00  0.00     0.321 C 
ATOM      9  O   UNL     1     -11.470  -0.288 -32.910  1.00  0.00    -0.251 OA
BRANCH   8  10
ATOM     10  O   UNL     1     -10.879   1.886 -33.029  1.00  0.00    -0.480 OA
ATOM     11  H   UNL     1     -10.177   2.431 -32.621  1.00  0.00     0.296 HD
ENDBRANCH   8  10
ENDBRANCH   7   8
BRANCH   7  12
ATOM     12  N   UNL     1      -8.348   1.435 -32.606  1.00  0.00    -0.318 NA
ATOM     13  H   UNL     1      -8.797   1.720 -31.729  1.00  0.00     0.119 HD
ATOM     14  H   UNL     1      -8.427   2.255 -33.207  1.00  0.00     0.119 HD
ENDBRANCH   7  12
ENDBRANCH   1   7
TORSDOF 7
ENDMDL
MODEL 10
REMARK VINA RESULT:      -4.6     12.865     13.548
REMARK SMILES C=CC[S@@](=O)C[C@H](N)C(=O)O
REMARK SMILES IDX 6 1 4 2 5 3 3 4 2 5 1 6 7 7 9 8 10 9 11 10 8 12
REMARK H PARENT 11 11 8 13 8 14
ROOT
ATOM      1  C   UNL     1      -7.821   0.888 -33.147  1.00  0.00     0.136 C 
ENDROOT
BRANCH   1   2
ATOM      2  S   UNL     1      -6.376   1.090 -32.046  1.00  0.00     0.027 S 
ATOM      3  O   UNL     1      -6.004  -0.279 -31.552  1.00  0.00    -0.259 OA
BRANCH   2   4
ATOM      4  C   UNL     1      -7.264   1.928 -30.685  1.00  0.00     0.131 C 
BRANCH   4   5
ATOM      5  C   UNL     1      -6.299   2.717 -29.853  1.00  0.00    -0.021 C 
ATOM      6  C   UNL     1      -5.350   3.525 -30.343  1.00  0.00     0.005 C 
ENDBRANCH   4   5
ENDBRANCH   2   4
ENDBRANCH   1   2
BRANCH   1   7
ATOM      7  C   UNL     1      -9.053   0.379 -32.391  1.00  0.00     0.174 C 
BRANCH   7   8
ATOM      8  C   UNL     1     -10.348   0.624 -33.182  1.00  0.00     0.321 C 
ATOM      9  O   UNL     1     -10.891  -0.175 -33.926  1.00  0.00    -0.251 OA
BRANCH   8  10
ATOM     10  O   UNL     1     -10.887   1.841 -32.912  1.00  0.00    -0.480 OA
ATOM     11  H   UNL     1     -11.111   1.973 -31.970  1.00  0.00     0.296 HD
ENDBRANCH   8  10
ENDBRANCH   7   8
BRANCH   7  12
ATOM     12  N   UNL     1      -8.929  -1.073 -32.111  1.00  0.00    -0.318 NA
ATOM     13  H   UNL     1      -9.760  -1.380 -31.594  1.00  0.00     0.119 HD
ATOM     14  H   UNL     1      -8.154  -1.261 -31.476  1.00  0.00     0.119 HD
ENDBRANCH   7  12
ENDBRANCH   1   7
TORSDOF 7
ENDMDL
