MODEL 1
REMARK VINA RESULT:      -7.9      0.000      0.000
REMARK SMILES O=C(/C=C/c1ccc(O)c(O)c1)O[C@H](Cc1ccc(O)c(O)c1)C(=O)O
REMARK SMILES IDX 13 1 14 2 15 3 16 4 17 5 18 6 19 7 23 8 21 9 20 10 22 12
REMARK SMILES IDX 24 14 25 15 26 16 2 18 1 19 3 20 4 21 5 22 12 23 6 24 10 25
REMARK SMILES IDX 7 26 8 27 11 28 9 30
REMARK H PARENT 20 11 22 13 26 17 11 29 9 31
ROOT
ATOM      1  O   UNL     1      -8.203  -0.090 -32.340  1.00  0.00    -0.447 OA
ENDROOT
BRANCH   1   2
ATOM      2  C   UNL     1      -9.297   0.461 -31.586  1.00  0.00     0.290 C 
BRANCH   2   3
ATOM      3  C   UNL     1      -9.609  -0.496 -30.423  1.00  0.00     0.093 C 
BRANCH   3   4
ATOM      4  C   UNL     1      -8.446  -0.662 -29.467  1.00  0.00    -0.040 A 
ATOM      5  C   UNL     1      -7.747  -1.879 -29.405  1.00  0.00     0.008 A 
ATOM      6  C   UNL     1      -6.663  -2.042 -28.536  1.00  0.00     0.050 A 
ATOM      7  C   UNL     1      -6.277  -0.981 -27.729  1.00  0.00     0.157 A 
ATOM      8  C   UNL     1      -8.051   0.393 -28.630  1.00  0.00     0.054 A 
ATOM      9  C   UNL     1      -6.969   0.226 -27.779  1.00  0.00     0.157 A 
BRANCH   7  10
ATOM     10  O   UNL     1      -5.221  -1.074 -26.864  1.00  0.00    -0.504 OA
ATOM     11  H   UNL     1      -4.403  -0.923 -27.370  1.00  0.00     0.293 HD
ENDBRANCH   7  10
BRANCH   9  12
ATOM     12  O   UNL     1      -6.582   1.267 -26.984  1.00  0.00    -0.504 OA
ATOM     13  H   UNL     1      -5.803   0.929 -26.499  1.00  0.00     0.293 HD
ENDBRANCH   9  12
ENDBRANCH   3   4
ENDBRANCH   2   3
BRANCH   2  14
ATOM     14  C   UNL     1     -10.552   0.646 -32.451  1.00  0.00     0.345 C 
ATOM     15  O   UNL     1     -11.302  -0.259 -32.789  1.00  0.00    -0.248 OA
BRANCH  14  16
ATOM     16  O   UNL     1     -10.784   1.930 -32.817  1.00  0.00    -0.478 OA
ATOM     17  H   UNL     1      -9.985   2.405 -33.154  1.00  0.00     0.296 HD
ENDBRANCH  14  16
ENDBRANCH   2  14
ENDBRANCH   1   2
BRANCH   1  18
ATOM     18  C   UNL     1      -7.357   0.821 -32.871  1.00  0.00     0.331 C 
ATOM     19  O   UNL     1      -7.412   1.242 -34.017  1.00  0.00    -0.247 OA
BRANCH  18  20
ATOM     20  C   UNL     1      -6.339   1.169 -31.867  1.00  0.00     0.094 C 
ATOM     21  C   UNL     1      -5.448   0.248 -31.473  1.00  0.00     0.016 C 
BRANCH  21  22
ATOM     22  C   UNL     1      -4.416   0.505 -30.462  1.00  0.00    -0.021 A 
ATOM     23  C   UNL     1      -4.376   1.709 -29.738  1.00  0.00     0.058 A 
ATOM     24  C   UNL     1      -3.487  -0.506 -30.167  1.00  0.00     0.012 A 
ATOM     25  C   UNL     1      -3.405   1.889 -28.759  1.00  0.00     0.157 A 
ATOM     26  C   UNL     1      -2.512  -0.313 -29.184  1.00  0.00     0.051 A 
ATOM     27  C   UNL     1      -2.480   0.885 -28.489  1.00  0.00     0.157 A 
BRANCH  25  28
ATOM     28  O   UNL     1      -3.323   3.040 -28.025  1.00  0.00    -0.504 OA
ATOM     29  H   UNL     1      -3.393   3.797 -28.631  1.00  0.00     0.293 HD
ENDBRANCH  25  28
BRANCH  27  30
ATOM     30  O   UNL     1      -1.533   1.070 -27.523  1.00  0.00    -0.504 OA
ATOM     31  H   UNL     1      -2.002   0.895 -26.683  1.00  0.00     0.293 HD
ENDBRANCH  27  30
ENDBRANCH  21  22
ENDBRANCH  18  20
ENDBRANCH   1  18
TORSDOF 12
ENDMDL
MODEL 2
REMARK VINA RESULT:      -7.5      3.035      7.072
REMARK SMILES O=C(/C=C/c1ccc(O)c(O)c1)O[C@H](Cc1ccc(O)c(O)c1)C(=O)O
REMARK SMILES IDX 13 1 14 2 15 3 16 4 17 5 18 6 19 7 23 8 21 9 20 10 22 12
REMARK SMILES IDX 24 14 25 15 26 16 2 18 1 19 3 20 4 21 5 22 12 23 6 24 10 25
REMARK SMILES IDX 7 26 8 27 11 28 9 30
REMARK H PARENT 20 11 22 13 26 17 11 29 9 31
ROOT
ATOM      1  O   UNL     1      -6.112  -0.535 -30.706  1.00  0.00    -0.447 OA
ENDROOT
BRANCH   1   2
ATOM      2  C   UNL     1      -5.478   0.736 -30.481  1.00  0.00     0.290 C 
BRANCH   2   3
ATOM      3  C   UNL     1      -6.501   1.844 -30.783  1.00  0.00     0.093 C 
BRANCH   3   4
ATOM      4  C   UNL     1      -7.717   1.338 -31.530  1.00  0.00    -0.040 A 
ATOM      5  C   UNL     1      -7.684   1.200 -32.928  1.00  0.00     0.008 A 
ATOM      6  C   UNL     1      -8.796   0.721 -33.629  1.00  0.00     0.050 A 
ATOM      7  C   UNL     1      -9.943   0.377 -32.927  1.00  0.00     0.157 A 
ATOM      8  C   UNL     1      -8.891   1.001 -30.840  1.00  0.00     0.054 A 
ATOM      9  C   UNL     1      -9.986   0.517 -31.542  1.00  0.00     0.157 A 
BRANCH   7  10
ATOM     10  O   UNL     1     -11.059  -0.104 -33.552  1.00  0.00    -0.504 OA
ATOM     11  H   UNL     1     -11.780   0.535 -33.418  1.00  0.00     0.293 HD
ENDBRANCH   7  10
BRANCH   9  12
ATOM     12  O   UNL     1     -11.116   0.174 -30.857  1.00  0.00    -0.504 OA
ATOM     13  H   UNL     1     -11.127  -0.804 -30.877  1.00  0.00     0.293 HD
ENDBRANCH   9  12
ENDBRANCH   3   4
ENDBRANCH   2   3
BRANCH   2  14
ATOM     14  C   UNL     1      -4.239   0.923 -31.370  1.00  0.00     0.345 C 
ATOM     15  O   UNL     1      -4.265   1.345 -32.517  1.00  0.00    -0.248 OA
BRANCH  14  16
ATOM     16  O   UNL     1      -3.073   0.585 -30.767  1.00  0.00    -0.478 OA
ATOM     17  H   UNL     1      -2.362   1.267 -30.850  1.00  0.00     0.296 HD
ENDBRANCH  14  16
ENDBRANCH   2  14
ENDBRANCH   1   2
BRANCH   1  18
ATOM     18  C   UNL     1      -5.712  -1.528 -29.881  1.00  0.00     0.331 C 
ATOM     19  O   UNL     1      -4.551  -1.851 -29.686  1.00  0.00    -0.247 OA
BRANCH  18  20
ATOM     20  C   UNL     1      -6.902  -2.183 -29.312  1.00  0.00     0.094 C 
ATOM     21  C   UNL     1      -7.479  -3.202 -29.965  1.00  0.00     0.016 C 
BRANCH  21  22
ATOM     22  C   UNL     1      -8.679  -3.895 -29.480  1.00  0.00    -0.021 A 
ATOM     23  C   UNL     1      -9.480  -4.668 -30.336  1.00  0.00     0.058 A 
ATOM     24  C   UNL     1      -8.992  -3.834 -28.112  1.00  0.00     0.012 A 
ATOM     25  C   UNL     1     -10.583  -5.343 -29.821  1.00  0.00     0.157 A 
ATOM     26  C   UNL     1     -10.105  -4.511 -27.606  1.00  0.00     0.051 A 
ATOM     27  C   UNL     1     -10.892  -5.259 -28.467  1.00  0.00     0.157 A 
BRANCH  25  28
ATOM     28  O   UNL     1     -11.394  -6.111 -30.610  1.00  0.00    -0.504 OA
ATOM     29  H   UNL     1     -10.902  -6.908 -30.871  1.00  0.00     0.293 HD
ENDBRANCH  25  28
BRANCH  27  30
ATOM     30  O   UNL     1     -11.973  -5.927 -27.970  1.00  0.00    -0.504 OA
ATOM     31  H   UNL     1     -11.712  -6.870 -27.996  1.00  0.00     0.293 HD
ENDBRANCH  27  30
ENDBRANCH  21  22
ENDBRANCH  18  20
ENDBRANCH   1  18
TORSDOF 12
ENDMDL
MODEL 3
REMARK VINA RESULT:      -7.5      2.164      2.996
REMARK SMILES O=C(/C=C/c1ccc(O)c(O)c1)O[C@H](Cc1ccc(O)c(O)c1)C(=O)O
REMARK SMILES IDX 13 1 14 2 15 3 16 4 17 5 18 6 19 7 23 8 21 9 20 10 22 12
REMARK SMILES IDX 24 14 25 15 26 16 2 18 1 19 3 20 4 21 5 22 12 23 6 24 10 25
REMARK SMILES IDX 7 26 8 27 11 28 9 30
REMARK H PARENT 20 11 22 13 26 17 11 29 9 31
ROOT
ATOM      1  O   UNL     1      -8.072   0.116 -33.118  1.00  0.00    -0.447 OA
ENDROOT
BRANCH   1   2
ATOM      2  C   UNL     1      -9.237   0.015 -32.281  1.00  0.00     0.290 C 
BRANCH   2   3
ATOM      3  C   UNL     1      -9.446  -1.467 -31.924  1.00  0.00     0.093 C 
BRANCH   3   4
ATOM      4  C   UNL     1      -9.363  -1.733 -30.436  1.00  0.00    -0.040 A 
ATOM      5  C   UNL     1      -9.766  -0.750 -29.516  1.00  0.00     0.008 A 
ATOM      6  C   UNL     1      -9.706  -0.987 -28.139  1.00  0.00     0.050 A 
ATOM      7  C   UNL     1      -9.244  -2.214 -27.682  1.00  0.00     0.157 A 
ATOM      8  C   UNL     1      -8.883  -2.960 -29.954  1.00  0.00     0.054 A 
ATOM      9  C   UNL     1      -8.837  -3.191 -28.587  1.00  0.00     0.157 A 
BRANCH   7  10
ATOM     10  O   UNL     1      -9.169  -2.511 -26.349  1.00  0.00    -0.504 OA
ATOM     11  H   UNL     1      -8.298  -2.907 -26.176  1.00  0.00     0.293 HD
ENDBRANCH   7  10
BRANCH   9  12
ATOM     12  O   UNL     1      -8.386  -4.396 -28.131  1.00  0.00    -0.504 OA
ATOM     13  H   UNL     1      -8.598  -5.025 -28.850  1.00  0.00     0.293 HD
ENDBRANCH   9  12
ENDBRANCH   3   4
ENDBRANCH   2   3
BRANCH   2  14
ATOM     14  C   UNL     1     -10.493   0.559 -32.978  1.00  0.00     0.345 C 
ATOM     15  O   UNL     1     -11.238  -0.106 -33.683  1.00  0.00    -0.248 OA
BRANCH  14  16
ATOM     16  O   UNL     1     -10.730   1.872 -32.740  1.00  0.00    -0.478 OA
ATOM     17  H   UNL     1      -9.927   2.387 -32.481  1.00  0.00     0.296 HD
ENDBRANCH  14  16
ENDBRANCH   2  14
ENDBRANCH   1   2
BRANCH   1  18
ATOM     18  C   UNL     1      -7.094   0.920 -32.645  1.00  0.00     0.331 C 
ATOM     19  O   UNL     1      -6.430   1.688 -33.324  1.00  0.00    -0.247 OA
BRANCH  18  20
ATOM     20  C   UNL     1      -6.928   0.671 -31.203  1.00  0.00     0.094 C 
ATOM     21  C   UNL     1      -6.104  -0.300 -30.784  1.00  0.00     0.016 C 
BRANCH  21  22
ATOM     22  C   UNL     1      -5.898  -0.628 -29.368  1.00  0.00    -0.021 A 
ATOM     23  C   UNL     1      -6.234   0.276 -28.346  1.00  0.00     0.058 A 
ATOM     24  C   UNL     1      -5.415  -1.902 -29.029  1.00  0.00     0.012 A 
ATOM     25  C   UNL     1      -6.062  -0.097 -27.016  1.00  0.00     0.157 A 
ATOM     26  C   UNL     1      -5.242  -2.265 -27.691  1.00  0.00     0.051 A 
ATOM     27  C   UNL     1      -5.567  -1.357 -26.696  1.00  0.00     0.157 A 
BRANCH  25  28
ATOM     28  O   UNL     1      -6.376   0.743 -25.984  1.00  0.00    -0.504 OA
ATOM     29  H   UNL     1      -6.910   0.249 -25.339  1.00  0.00     0.293 HD
ENDBRANCH  25  28
BRANCH  27  30
ATOM     30  O   UNL     1      -5.405  -1.715 -25.388  1.00  0.00    -0.504 OA
ATOM     31  H   UNL     1      -6.316  -1.831 -25.052  1.00  0.00     0.293 HD
ENDBRANCH  27  30
ENDBRANCH  21  22
ENDBRANCH  18  20
ENDBRANCH   1  18
TORSDOF 12
ENDMDL
MODEL 4
REMARK VINA RESULT:      -7.5      2.132      5.906
REMARK SMILES O=C(/C=C/c1ccc(O)c(O)c1)O[C@H](Cc1ccc(O)c(O)c1)C(=O)O
REMARK SMILES IDX 13 1 14 2 15 3 16 4 17 5 18 6 19 7 23 8 21 9 20 10 22 12
REMARK SMILES IDX 24 14 25 15 26 16 2 18 1 19 3 20 4 21 5 22 12 23 6 24 10 25
REMARK SMILES IDX 7 26 8 27 11 28 9 30
REMARK H PARENT 20 11 22 13 26 17 11 29 9 31
ROOT
ATOM      1  O   UNL     1      -3.706   1.998 -29.745  1.00  0.00    -0.447 OA
ENDROOT
BRANCH   1   2
ATOM      2  C   UNL     1      -3.912   0.584 -29.904  1.00  0.00     0.290 C 
BRANCH   2   3
ATOM      3  C   UNL     1      -3.071  -0.147 -28.843  1.00  0.00     0.093 C 
BRANCH   3   4
ATOM      4  C   UNL     1      -3.888  -0.598 -27.650  1.00  0.00    -0.040 A 
ATOM      5  C   UNL     1      -4.572  -1.825 -27.682  1.00  0.00     0.008 A 
ATOM      6  C   UNL     1      -5.320  -2.260 -26.583  1.00  0.00     0.050 A 
ATOM      7  C   UNL     1      -5.380  -1.463 -25.447  1.00  0.00     0.157 A 
ATOM      8  C   UNL     1      -3.975   0.201 -26.500  1.00  0.00     0.054 A 
ATOM      9  C   UNL     1      -4.710  -0.243 -25.410  1.00  0.00     0.157 A 
BRANCH   7  10
ATOM     10  O   UNL     1      -6.086  -1.835 -24.337  1.00  0.00    -0.504 OA
ATOM     11  H   UNL     1      -5.481  -2.305 -23.737  1.00  0.00     0.293 HD
ENDBRANCH   7  10
BRANCH   9  12
ATOM     12  O   UNL     1      -4.772   0.534 -24.289  1.00  0.00    -0.504 OA
ATOM     13  H   UNL     1      -5.705   0.821 -24.240  1.00  0.00     0.293 HD
ENDBRANCH   9  12
ENDBRANCH   3   4
ENDBRANCH   2   3
BRANCH   2  14
ATOM     14  C   UNL     1      -3.509   0.100 -31.304  1.00  0.00     0.345 C 
ATOM     15  O   UNL     1      -3.100  -1.024 -31.559  1.00  0.00    -0.248 OA
BRANCH  14  16
ATOM     16  O   UNL     1      -3.652   1.037 -32.273  1.00  0.00    -0.478 OA
ATOM     17  H   UNL     1      -4.201   1.814 -32.006  1.00  0.00     0.296 HD
ENDBRANCH  14  16
ENDBRANCH   2  14
ENDBRANCH   1   2
BRANCH   1  18
ATOM     18  C   UNL     1      -4.792   2.694 -29.339  1.00  0.00     0.331 C 
ATOM     19  O   UNL     1      -4.758   3.780 -28.781  1.00  0.00    -0.247 OA
BRANCH  18  20
ATOM     20  C   UNL     1      -6.000   1.903 -29.627  1.00  0.00     0.094 C 
ATOM     21  C   UNL     1      -6.805   2.259 -30.638  1.00  0.00     0.016 C 
BRANCH  21  22
ATOM     22  C   UNL     1      -8.039   1.540 -30.978  1.00  0.00    -0.021 A 
ATOM     23  C   UNL     1      -8.983   2.077 -31.868  1.00  0.00     0.058 A 
ATOM     24  C   UNL     1      -8.244   0.256 -30.449  1.00  0.00     0.012 A 
ATOM     25  C   UNL     1     -10.117   1.340 -32.195  1.00  0.00     0.157 A 
ATOM     26  C   UNL     1      -9.388  -0.476 -30.780  1.00  0.00     0.051 A 
ATOM     27  C   UNL     1     -10.316   0.074 -31.650  1.00  0.00     0.157 A 
BRANCH  25  28
ATOM     28  O   UNL     1     -11.065   1.814 -33.057  1.00  0.00    -0.504 OA
ATOM     29  H   UNL     1     -11.943   1.587 -32.704  1.00  0.00     0.293 HD
ENDBRANCH  25  28
BRANCH  27  30
ATOM     30  O   UNL     1     -11.429  -0.643 -31.979  1.00  0.00    -0.504 OA
ATOM     31  H   UNL     1     -11.314  -0.853 -32.928  1.00  0.00     0.293 HD
ENDBRANCH  27  30
ENDBRANCH  21  22
ENDBRANCH  18  20
ENDBRANCH   1  18
TORSDOF 12
ENDMDL
MODEL 5
REMARK VINA RESULT:      -7.4      2.147      6.927
REMARK SMILES O=C(/C=C/c1ccc(O)c(O)c1)O[C@H](Cc1ccc(O)c(O)c1)C(=O)O
REMARK SMILES IDX 13 1 14 2 15 3 16 4 17 5 18 6 19 7 23 8 21 9 20 10 22 12
REMARK SMILES IDX 24 14 25 15 26 16 2 18 1 19 3 20 4 21 5 22 12 23 6 24 10 25
REMARK SMILES IDX 7 26 8 27 11 28 9 30
REMARK H PARENT 20 11 22 13 26 17 11 29 9 31
ROOT
ATOM      1  O   UNL     1      -7.012  -1.917 -27.002  1.00  0.00    -0.447 OA
ENDROOT
BRANCH   1   2
ATOM      2  C   UNL     1      -5.898  -1.041 -26.757  1.00  0.00     0.290 C 
BRANCH   2   3
ATOM      3  C   UNL     1      -4.693  -1.559 -27.560  1.00  0.00     0.093 C 
BRANCH   3   4
ATOM      4  C   UNL     1      -4.456  -0.781 -28.838  1.00  0.00    -0.040 A 
ATOM      5  C   UNL     1      -4.992   0.510 -28.991  1.00  0.00     0.008 A 
ATOM      6  C   UNL     1      -4.771   1.244 -30.160  1.00  0.00     0.050 A 
ATOM      7  C   UNL     1      -4.010   0.686 -31.178  1.00  0.00     0.157 A 
ATOM      8  C   UNL     1      -3.704  -1.335 -29.885  1.00  0.00     0.054 A 
ATOM      9  C   UNL     1      -3.482  -0.595 -31.037  1.00  0.00     0.157 A 
BRANCH   7  10
ATOM     10  O   UNL     1      -3.751   1.356 -32.342  1.00  0.00    -0.504 OA
ATOM     11  H   UNL     1      -3.317   2.197 -32.116  1.00  0.00     0.293 HD
ENDBRANCH   7  10
BRANCH   9  12
ATOM     12  O   UNL     1      -2.732  -1.137 -32.040  1.00  0.00    -0.504 OA
ATOM     13  H   UNL     1      -3.388  -1.473 -32.683  1.00  0.00     0.293 HD
ENDBRANCH   9  12
ENDBRANCH   3   4
ENDBRANCH   2   3
BRANCH   2  14
ATOM     14  C   UNL     1      -5.535  -0.981 -25.266  1.00  0.00     0.345 C 
ATOM     15  O   UNL     1      -4.914  -0.069 -24.739  1.00  0.00    -0.248 OA
BRANCH  14  16
ATOM     16  O   UNL     1      -5.976  -2.042 -24.548  1.00  0.00    -0.478 OA
ATOM     17  H   UNL     1      -5.256  -2.589 -24.150  1.00  0.00     0.296 HD
ENDBRANCH  14  16
ENDBRANCH   2  14
ENDBRANCH   1   2
BRANCH   1  18
ATOM     18  C   UNL     1      -8.222  -1.409 -26.680  1.00  0.00     0.331 C 
ATOM     19  O   UNL     1      -8.826  -1.644 -25.645  1.00  0.00    -0.247 OA
BRANCH  18  20
ATOM     20  C   UNL     1      -8.706  -0.583 -27.798  1.00  0.00     0.094 C 
ATOM     21  C   UNL     1      -8.584  -1.027 -29.058  1.00  0.00     0.016 C 
BRANCH  21  22
ATOM     22  C   UNL     1      -9.019  -0.258 -30.230  1.00  0.00    -0.021 A 
ATOM     23  C   UNL     1     -10.093  -0.681 -31.031  1.00  0.00     0.058 A 
ATOM     24  C   UNL     1      -8.387   0.963 -30.515  1.00  0.00     0.012 A 
ATOM     25  C   UNL     1     -10.498   0.103 -32.106  1.00  0.00     0.157 A 
ATOM     26  C   UNL     1      -8.798   1.741 -31.600  1.00  0.00     0.051 A 
ATOM     27  C   UNL     1      -9.851   1.303 -32.387  1.00  0.00     0.157 A 
BRANCH  25  28
ATOM     28  O   UNL     1     -11.538  -0.260 -32.915  1.00  0.00    -0.504 OA
ATOM     29  H   UNL     1     -11.357  -1.148 -33.269  1.00  0.00     0.293 HD
ENDBRANCH  25  28
BRANCH  27  30
ATOM     30  O   UNL     1     -10.258   2.068 -33.442  1.00  0.00    -0.504 OA
ATOM     31  H   UNL     1      -9.847   1.646 -34.223  1.00  0.00     0.293 HD
ENDBRANCH  27  30
ENDBRANCH  21  22
ENDBRANCH  18  20
ENDBRANCH   1  18
TORSDOF 12
ENDMDL
MODEL 6
REMARK VINA RESULT:      -7.4      1.800      6.199
REMARK SMILES O=C(/C=C/c1ccc(O)c(O)c1)O[C@H](Cc1ccc(O)c(O)c1)C(=O)O
REMARK SMILES IDX 13 1 14 2 15 3 16 4 17 5 18 6 19 7 23 8 21 9 20 10 22 12
REMARK SMILES IDX 24 14 25 15 26 16 2 18 1 19 3 20 4 21 5 22 12 23 6 24 10 25
REMARK SMILES IDX 7 26 8 27 11 28 9 30
REMARK H PARENT 20 11 22 13 26 17 11 29 9 31
ROOT
ATOM      1  O   UNL     1      -4.307   1.641 -28.554  1.00  0.00    -0.447 OA
ENDROOT
BRANCH   1   2
ATOM      2  C   UNL     1      -3.688   0.404 -28.945  1.00  0.00     0.290 C 
BRANCH   2   3
ATOM      3  C   UNL     1      -4.171  -0.700 -27.989  1.00  0.00     0.093 C 
BRANCH   3   4
ATOM      4  C   UNL     1      -5.499  -1.299 -28.401  1.00  0.00    -0.040 A 
ATOM      5  C   UNL     1      -5.685  -1.777 -29.709  1.00  0.00     0.008 A 
ATOM      6  C   UNL     1      -6.903  -2.345 -30.100  1.00  0.00     0.050 A 
ATOM      7  C   UNL     1      -7.935  -2.435 -29.176  1.00  0.00     0.157 A 
ATOM      8  C   UNL     1      -6.560  -1.383 -27.487  1.00  0.00     0.054 A 
ATOM      9  C   UNL     1      -7.761  -1.957 -27.880  1.00  0.00     0.157 A 
BRANCH   7  10
ATOM     10  O   UNL     1      -9.146  -2.986 -29.493  1.00  0.00    -0.504 OA
ATOM     11  H   UNL     1      -9.817  -2.599 -28.905  1.00  0.00     0.293 HD
ENDBRANCH   7  10
BRANCH   9  12
ATOM     12  O   UNL     1      -8.780  -2.051 -26.976  1.00  0.00    -0.504 OA
ATOM     13  H   UNL     1      -9.070  -1.128 -26.837  1.00  0.00     0.293 HD
ENDBRANCH   9  12
ENDBRANCH   3   4
ENDBRANCH   2   3
BRANCH   2  14
ATOM     14  C   UNL     1      -2.155   0.490 -28.900  1.00  0.00     0.345 C 
ATOM     15  O   UNL     1      -1.416   0.212 -29.834  1.00  0.00    -0.248 OA
BRANCH  14  16
ATOM     16  O   UNL     1      -1.663   0.922 -27.713  1.00  0.00    -0.478 OA
ATOM     17  H   UNL     1      -2.291   0.829 -26.956  1.00  0.00     0.296 HD
ENDBRANCH  14  16
ENDBRANCH   2  14
ENDBRANCH   1   2
BRANCH   1  18
ATOM     18  C   UNL     1      -4.748   2.409 -29.574  1.00  0.00     0.331 C 
ATOM     19  O   UNL     1      -4.148   3.366 -30.040  1.00  0.00    -0.247 OA
BRANCH  18  20
ATOM     20  C   UNL     1      -6.082   1.939 -29.983  1.00  0.00     0.094 C 
ATOM     21  C   UNL     1      -6.302   1.578 -31.255  1.00  0.00     0.016 C 
BRANCH  21  22
ATOM     22  C   UNL     1      -7.605   1.120 -31.750  1.00  0.00    -0.021 A 
ATOM     23  C   UNL     1      -8.669   0.839 -30.876  1.00  0.00     0.058 A 
ATOM     24  C   UNL     1      -7.811   1.024 -33.136  1.00  0.00     0.012 A 
ATOM     25  C   UNL     1      -9.900   0.450 -31.394  1.00  0.00     0.157 A 
ATOM     26  C   UNL     1      -9.050   0.627 -33.647  1.00  0.00     0.051 A 
ATOM     27  C   UNL     1     -10.084   0.343 -32.770  1.00  0.00     0.157 A 
BRANCH  25  28
ATOM     28  O   UNL     1     -10.968   0.168 -30.588  1.00  0.00    -0.504 OA
ATOM     29  H   UNL     1     -11.685   0.789 -30.801  1.00  0.00     0.293 HD
ENDBRANCH  25  28
BRANCH  27  30
ATOM     30  O   UNL     1     -11.296  -0.036 -33.269  1.00  0.00    -0.504 OA
ATOM     31  H   UNL     1     -11.704  -0.561 -32.551  1.00  0.00     0.293 HD
ENDBRANCH  27  30
ENDBRANCH  21  22
ENDBRANCH  18  20
ENDBRANCH   1  18
TORSDOF 12
ENDMDL
MODEL 7
REMARK VINA RESULT:      -7.4      2.321      3.850
REMARK SMILES O=C(/C=C/c1ccc(O)c(O)c1)O[C@H](Cc1ccc(O)c(O)c1)C(=O)O
REMARK SMILES IDX 13 1 14 2 15 3 16 4 17 5 18 6 19 7 23 8 21 9 20 10 22 12
REMARK SMILES IDX 24 14 25 15 26 16 2 18 1 19 3 20 4 21 5 22 12 23 6 24 10 25
REMARK SMILES IDX 7 26 8 27 11 28 9 30
REMARK H PARENT 20 11 22 13 26 17 11 29 9 31
ROOT
ATOM      1  O   UNL     1      -6.697  -0.033 -31.388  1.00  0.00    -0.447 OA
ENDROOT
BRANCH   1   2
ATOM      2  C   UNL     1      -6.994  -0.884 -30.267  1.00  0.00     0.290 C 
BRANCH   2   3
ATOM      3  C   UNL     1      -5.768  -1.772 -29.998  1.00  0.00     0.093 C 
BRANCH   3   4
ATOM      4  C   UNL     1      -4.621  -1.017 -29.360  1.00  0.00    -0.040 A 
ATOM      5  C   UNL     1      -3.447  -0.761 -30.090  1.00  0.00     0.008 A 
ATOM      6  C   UNL     1      -2.385  -0.054 -29.517  1.00  0.00     0.050 A 
ATOM      7  C   UNL     1      -2.500   0.400 -28.210  1.00  0.00     0.157 A 
ATOM      8  C   UNL     1      -4.711  -0.565 -28.035  1.00  0.00     0.054 A 
ATOM      9  C   UNL     1      -3.656   0.144 -27.478  1.00  0.00     0.157 A 
BRANCH   7  10
ATOM     10  O   UNL     1      -1.501   1.103 -27.596  1.00  0.00    -0.504 OA
ATOM     11  H   UNL     1      -1.912   1.780 -27.030  1.00  0.00     0.293 HD
ENDBRANCH   7  10
BRANCH   9  12
ATOM     12  O   UNL     1      -3.764   0.596 -26.194  1.00  0.00    -0.504 OA
ATOM     13  H   UNL     1      -3.063   0.119 -25.707  1.00  0.00     0.293 HD
ENDBRANCH   9  12
ENDBRANCH   3   4
ENDBRANCH   2   3
BRANCH   2  14
ATOM     14  C   UNL     1      -8.223  -1.767 -30.530  1.00  0.00     0.345 C 
ATOM     15  O   UNL     1      -8.966  -2.199 -29.660  1.00  0.00    -0.248 OA
BRANCH  14  16
ATOM     16  O   UNL     1      -8.438  -2.036 -31.841  1.00  0.00    -0.478 OA
ATOM     17  H   UNL     1      -9.373  -2.271 -32.057  1.00  0.00     0.296 HD
ENDBRANCH  14  16
ENDBRANCH   2  14
ENDBRANCH   1   2
BRANCH   1  18
ATOM     18  C   UNL     1      -7.147   1.237 -31.278  1.00  0.00     0.331 C 
ATOM     19  O   UNL     1      -8.319   1.572 -31.353  1.00  0.00    -0.247 OA
BRANCH  18  20
ATOM     20  C   UNL     1      -5.996   2.140 -31.115  1.00  0.00     0.094 C 
ATOM     21  C   UNL     1      -5.778   2.737 -29.935  1.00  0.00     0.016 C 
BRANCH  21  22
ATOM     22  C   UNL     1      -4.668   3.667 -29.694  1.00  0.00    -0.021 A 
ATOM     23  C   UNL     1      -4.343   4.681 -30.611  1.00  0.00     0.058 A 
ATOM     24  C   UNL     1      -3.958   3.580 -28.486  1.00  0.00     0.012 A 
ATOM     25  C   UNL     1      -3.311   5.566 -30.319  1.00  0.00     0.157 A 
ATOM     26  C   UNL     1      -2.919   4.471 -28.204  1.00  0.00     0.051 A 
ATOM     27  C   UNL     1      -2.605   5.457 -29.125  1.00  0.00     0.157 A 
BRANCH  25  28
ATOM     28  O   UNL     1      -2.956   6.572 -31.175  1.00  0.00    -0.504 OA
ATOM     29  H   UNL     1      -2.257   6.240 -31.765  1.00  0.00     0.293 HD
ENDBRANCH  25  28
BRANCH  27  30
ATOM     30  O   UNL     1      -1.596   6.333 -28.846  1.00  0.00    -0.504 OA
ATOM     31  H   UNL     1      -2.051   7.177 -28.651  1.00  0.00     0.293 HD
ENDBRANCH  27  30
ENDBRANCH  21  22
ENDBRANCH  18  20
ENDBRANCH   1  18
TORSDOF 12
ENDMDL
MODEL 8
REMARK VINA RESULT:      -7.4      1.935      3.404
REMARK SMILES O=C(/C=C/c1ccc(O)c(O)c1)O[C@H](Cc1ccc(O)c(O)c1)C(=O)O
REMARK SMILES IDX 13 1 14 2 15 3 16 4 17 5 18 6 19 7 23 8 21 9 20 10 22 12
REMARK SMILES IDX 24 14 25 15 26 16 2 18 1 19 3 20 4 21 5 22 12 23 6 24 10 25
REMARK SMILES IDX 7 26 8 27 11 28 9 30
REMARK H PARENT 20 11 22 13 26 17 11 29 9 31
ROOT
ATOM      1  O   UNL     1      -9.255  -1.203 -30.752  1.00  0.00    -0.447 OA
ENDROOT
BRANCH   1   2
ATOM      2  C   UNL     1      -8.889  -0.265 -31.779  1.00  0.00     0.290 C 
BRANCH   2   3
ATOM      3  C   UNL     1      -8.920   1.148 -31.172  1.00  0.00     0.093 C 
BRANCH   3   4
ATOM      4  C   UNL     1      -7.540   1.689 -30.862  1.00  0.00    -0.040 A 
ATOM      5  C   UNL     1      -7.291   2.339 -29.641  1.00  0.00     0.008 A 
ATOM      6  C   UNL     1      -6.017   2.832 -29.337  1.00  0.00     0.050 A 
ATOM      7  C   UNL     1      -4.991   2.670 -30.257  1.00  0.00     0.157 A 
ATOM      8  C   UNL     1      -6.493   1.550 -31.786  1.00  0.00     0.054 A 
ATOM      9  C   UNL     1      -5.231   2.032 -31.471  1.00  0.00     0.157 A 
BRANCH   7  10
ATOM     10  O   UNL     1      -3.722   3.121 -30.016  1.00  0.00    -0.504 OA
ATOM     11  H   UNL     1      -3.741   4.094 -30.028  1.00  0.00     0.293 HD
ENDBRANCH   7  10
BRANCH   9  12
ATOM     12  O   UNL     1      -4.216   1.873 -32.371  1.00  0.00    -0.504 OA
ATOM     13  H   UNL     1      -4.619   2.086 -33.235  1.00  0.00     0.293 HD
ENDBRANCH   9  12
ENDBRANCH   3   4
ENDBRANCH   2   3
BRANCH   2  14
ATOM     14  C   UNL     1      -9.843  -0.330 -32.980  1.00  0.00     0.345 C 
ATOM     15  O   UNL     1      -9.503  -0.607 -34.122  1.00  0.00    -0.248 OA
BRANCH  14  16
ATOM     16  O   UNL     1     -11.135  -0.061 -32.673  1.00  0.00    -0.478 OA
ATOM     17  H   UNL     1     -11.707   0.127 -33.457  1.00  0.00     0.296 HD
ENDBRANCH  14  16
ENDBRANCH   2  14
ENDBRANCH   1   2
BRANCH   1  18
ATOM     18  C   UNL     1      -8.299  -2.105 -30.434  1.00  0.00     0.331 C 
ATOM     19  O   UNL     1      -8.385  -3.309 -30.616  1.00  0.00    -0.247 OA
BRANCH  18  20
ATOM     20  C   UNL     1      -7.179  -1.403 -29.785  1.00  0.00     0.094 C 
ATOM     21  C   UNL     1      -5.918  -1.676 -30.153  1.00  0.00     0.016 C 
BRANCH  21  22
ATOM     22  C   UNL     1      -4.744  -1.040 -29.543  1.00  0.00    -0.021 A 
ATOM     23  C   UNL     1      -3.579  -0.781 -30.283  1.00  0.00     0.058 A 
ATOM     24  C   UNL     1      -4.817  -0.622 -28.204  1.00  0.00     0.012 A 
ATOM     25  C   UNL     1      -2.507  -0.135 -29.673  1.00  0.00     0.157 A 
ATOM     26  C   UNL     1      -3.734   0.021 -27.599  1.00  0.00     0.051 A 
ATOM     27  C   UNL     1      -2.587   0.258 -28.341  1.00  0.00     0.157 A 
BRANCH  25  28
ATOM     28  O   UNL     1      -1.352   0.143 -30.348  1.00  0.00    -0.504 OA
ATOM     29  H   UNL     1      -1.021  -0.681 -30.745  1.00  0.00     0.293 HD
ENDBRANCH  25  28
BRANCH  27  30
ATOM     30  O   UNL     1      -1.532   0.894 -27.752  1.00  0.00    -0.504 OA
ATOM     31  H   UNL     1      -1.857   1.801 -27.581  1.00  0.00     0.293 HD
ENDBRANCH  27  30
ENDBRANCH  21  22
ENDBRANCH  18  20
ENDBRANCH   1  18
TORSDOF 12
ENDMDL
MODEL 9
REMARK VINA RESULT:      -7.3      2.958      7.035
REMARK SMILES O=C(/C=C/c1ccc(O)c(O)c1)O[C@H](Cc1ccc(O)c(O)c1)C(=O)O
REMARK SMILES IDX 13 1 14 2 15 3 16 4 17 5 18 6 19 7 23 8 21 9 20 10 22 12
REMARK SMILES IDX 24 14 25 15 26 16 2 18 1 19 3 20 4 21 5 22 12 23 6 24 10 25
REMARK SMILES IDX 7 26 8 27 11 28 9 30
REMARK H PARENT 20 11 22 13 26 17 11 29 9 31
ROOT
ATOM      1  O   UNL     1      -5.931  -0.561 -30.529  1.00  0.00    -0.447 OA
ENDROOT
BRANCH   1   2
ATOM      2  C   UNL     1      -6.127   0.500 -29.578  1.00  0.00     0.290 C 
BRANCH   2   3
ATOM      3  C   UNL     1      -7.033   1.563 -30.223  1.00  0.00     0.093 C 
BRANCH   3   4
ATOM      4  C   UNL     1      -8.262   0.970 -30.881  1.00  0.00    -0.040 A 
ATOM      5  C   UNL     1      -9.161   0.191 -30.133  1.00  0.00     0.008 A 
ATOM      6  C   UNL     1     -10.306  -0.352 -30.725  1.00  0.00     0.050 A 
ATOM      7  C   UNL     1     -10.552  -0.111 -32.070  1.00  0.00     0.157 A 
ATOM      8  C   UNL     1      -8.520   1.188 -32.243  1.00  0.00     0.054 A 
ATOM      9  C   UNL     1      -9.663   0.654 -32.819  1.00  0.00     0.157 A 
BRANCH   7  10
ATOM     10  O   UNL     1     -11.658  -0.606 -32.704  1.00  0.00    -0.504 OA
ATOM     11  H   UNL     1     -11.918   0.028 -33.395  1.00  0.00     0.293 HD
ENDBRANCH   7  10
BRANCH   9  12
ATOM     12  O   UNL     1      -9.913   0.890 -34.141  1.00  0.00    -0.504 OA
ATOM     13  H   UNL     1     -10.603   0.239 -34.379  1.00  0.00     0.293 HD
ENDBRANCH   9  12
ENDBRANCH   3   4
ENDBRANCH   2   3
BRANCH   2  14
ATOM     14  C   UNL     1      -4.798   1.144 -29.157  1.00  0.00     0.345 C 
ATOM     15  O   UNL     1      -4.139   0.802 -28.185  1.00  0.00    -0.248 OA
BRANCH  14  16
ATOM     16  O   UNL     1      -4.388   2.145 -29.972  1.00  0.00    -0.478 OA
ATOM     17  H   UNL     1      -3.884   2.860 -29.513  1.00  0.00     0.296 HD
ENDBRANCH  14  16
ENDBRANCH   2  14
ENDBRANCH   1   2
BRANCH   1  18
ATOM     18  C   UNL     1      -5.476  -1.722 -30.006  1.00  0.00     0.331 C 
ATOM     19  O   UNL     1      -4.325  -2.122 -30.090  1.00  0.00    -0.247 OA
BRANCH  18  20
ATOM     20  C   UNL     1      -6.600  -2.437 -29.380  1.00  0.00     0.094 C 
ATOM     21  C   UNL     1      -7.540  -3.007 -30.149  1.00  0.00     0.016 C 
BRANCH  21  22
ATOM     22  C   UNL     1      -8.703  -3.718 -29.607  1.00  0.00    -0.021 A 
ATOM     23  C   UNL     1      -9.454  -4.610 -30.391  1.00  0.00     0.058 A 
ATOM     24  C   UNL     1      -9.031  -3.550 -28.252  1.00  0.00     0.012 A 
ATOM     25  C   UNL     1     -10.522  -5.295 -29.821  1.00  0.00     0.157 A 
ATOM     26  C   UNL     1     -10.109  -4.239 -27.689  1.00  0.00     0.051 A 
ATOM     27  C   UNL     1     -10.846  -5.106 -28.481  1.00  0.00     0.157 A 
BRANCH  25  28
ATOM     28  O   UNL     1     -11.282  -6.175 -30.539  1.00  0.00    -0.504 OA
ATOM     29  H   UNL     1     -11.017  -6.120 -31.473  1.00  0.00     0.293 HD
ENDBRANCH  25  28
BRANCH  27  30
ATOM     30  O   UNL     1     -11.893  -5.785 -27.929  1.00  0.00    -0.504 OA
ATOM     31  H   UNL     1     -11.669  -6.728 -28.059  1.00  0.00     0.293 HD
ENDBRANCH  27  30
ENDBRANCH  21  22
ENDBRANCH  18  20
ENDBRANCH   1  18
TORSDOF 12
ENDMDL
MODEL 10
REMARK VINA RESULT:      -7.2      1.765      3.146
REMARK SMILES O=C(/C=C/c1ccc(O)c(O)c1)O[C@H](Cc1ccc(O)c(O)c1)C(=O)O
REMARK SMILES IDX 13 1 14 2 15 3 16 4 17 5 18 6 19 7 23 8 21 9 20 10 22 12
REMARK SMILES IDX 24 14 25 15 26 16 2 18 1 19 3 20 4 21 5 22 12 23 6 24 10 25
REMARK SMILES IDX 7 26 8 27 11 28 9 30
REMARK H PARENT 20 11 22 13 26 17 11 29 9 31
ROOT
ATOM      1  O   UNL     1      -9.336  -1.212 -30.700  1.00  0.00    -0.447 OA
ENDROOT
BRANCH   1   2
ATOM      2  C   UNL     1      -9.019  -0.253 -31.724  1.00  0.00     0.290 C 
BRANCH   2   3
ATOM      3  C   UNL     1      -9.007   1.146 -31.084  1.00  0.00     0.093 C 
BRANCH   3   4
ATOM      4  C   UNL     1      -7.608   1.660 -30.816  1.00  0.00    -0.040 A 
ATOM      5  C   UNL     1      -6.624   1.593 -31.818  1.00  0.00     0.008 A 
ATOM      6  C   UNL     1      -5.331   2.076 -31.589  1.00  0.00     0.050 A 
ATOM      7  C   UNL     1      -5.024   2.630 -30.353  1.00  0.00     0.157 A 
ATOM      8  C   UNL     1      -7.273   2.208 -29.569  1.00  0.00     0.054 A 
ATOM      9  C   UNL     1      -5.991   2.694 -29.354  1.00  0.00     0.157 A 
BRANCH   7  10
ATOM     10  O   UNL     1      -3.782   3.126 -30.070  1.00  0.00    -0.504 OA
ATOM     11  H   UNL     1      -3.204   2.379 -29.837  1.00  0.00     0.293 HD
ENDBRANCH   7  10
BRANCH   9  12
ATOM     12  O   UNL     1      -5.683   3.243 -28.142  1.00  0.00    -0.504 OA
ATOM     13  H   UNL     1      -5.997   4.167 -28.205  1.00  0.00     0.293 HD
ENDBRANCH   9  12
ENDBRANCH   3   4
ENDBRANCH   2   3
BRANCH   2  14
ATOM     14  C   UNL     1     -10.038  -0.284 -32.873  1.00  0.00     0.345 C 
ATOM     15  O   UNL     1     -11.246  -0.153 -32.733  1.00  0.00    -0.248 OA
BRANCH  14  16
ATOM     16  O   UNL     1      -9.483  -0.463 -34.096  1.00  0.00    -0.478 OA
ATOM     17  H   UNL     1      -9.414  -1.409 -34.374  1.00  0.00     0.296 HD
ENDBRANCH  14  16
ENDBRANCH   2  14
ENDBRANCH   1   2
BRANCH   1  18
ATOM     18  C   UNL     1      -8.353  -2.097 -30.422  1.00  0.00     0.331 C 
ATOM     19  O   UNL     1      -8.419  -3.301 -30.618  1.00  0.00    -0.247 OA
BRANCH  18  20
ATOM     20  C   UNL     1      -7.229  -1.381 -29.796  1.00  0.00     0.094 C 
ATOM     21  C   UNL     1      -5.968  -1.716 -30.106  1.00  0.00     0.016 C 
BRANCH  21  22
ATOM     22  C   UNL     1      -4.792  -1.069 -29.513  1.00  0.00    -0.021 A 
ATOM     23  C   UNL     1      -3.639  -0.800 -30.268  1.00  0.00     0.058 A 
ATOM     24  C   UNL     1      -4.850  -0.651 -28.173  1.00  0.00     0.012 A 
ATOM     25  C   UNL     1      -2.565  -0.145 -29.673  1.00  0.00     0.157 A 
ATOM     26  C   UNL     1      -3.765   0.002 -27.583  1.00  0.00     0.051 A 
ATOM     27  C   UNL     1      -2.631   0.248 -28.340  1.00  0.00     0.157 A 
BRANCH  25  28
ATOM     28  O   UNL     1      -1.421   0.144 -30.364  1.00  0.00    -0.504 OA
ATOM     29  H   UNL     1      -1.053   0.974 -30.015  1.00  0.00     0.293 HD
ENDBRANCH  25  28
BRANCH  27  30
ATOM     30  O   UNL     1      -1.574   0.894 -27.766  1.00  0.00    -0.504 OA
ATOM     31  H   UNL     1      -1.951   1.733 -27.432  1.00  0.00     0.293 HD
ENDBRANCH  27  30
ENDBRANCH  21  22
ENDBRANCH  18  20
ENDBRANCH   1  18
TORSDOF 12
ENDMDL
