MODEL 1
REMARK VINA RESULT:      -8.3      0.000      0.000
REMARK SMILES O=C(/C=C/c1ccc(O)c(O)c1)O[C@@H]1C[C@](O)(C(=O)O)C[C@@H](O)[C@H]1O
REMARK SMILES IDX 2 1 1 2 13 3 14 4 21 5 22 6 16 7 24 8 15 9 23 10 17 12 18 14
REMARK SMILES IDX 19 15 20 16 25 18 3 20 4 21 5 22 12 23 6 24 10 25 7 26 8 27
REMARK SMILES IDX 11 28 9 30
REMARK H PARENT 23 11 17 13 20 17 25 19 11 29 9 31
ROOT
ATOM      1  C   UNL     1      -4.958   2.970 -30.366  1.00  0.00     0.331 C 
ATOM      2  O   UNL     1      -4.722   4.135 -30.655  1.00  0.00    -0.247 OA
ENDROOT
BRANCH   1   3
ATOM      3  O   UNL     1      -4.090   2.107 -29.788  1.00  0.00    -0.456 OA
BRANCH   3   4
ATOM      4  C   UNL     1      -4.629   0.812 -29.447  1.00  0.00     0.211 C 
ATOM      5  C   UNL     1      -4.224  -1.804 -28.089  1.00  0.00     0.082 C 
ATOM      6  C   UNL     1      -4.126  -1.682 -29.610  1.00  0.00     0.150 C 
ATOM      7  C   UNL     1      -5.125  -0.718 -27.487  1.00  0.00     0.167 C 
ATOM      8  C   UNL     1      -3.720  -0.268 -30.060  1.00  0.00     0.184 C 
ATOM      9  C   UNL     1      -4.681   0.677 -27.921  1.00  0.00     0.095 C 
BRANCH   6  10
ATOM     10  O   UNL     1      -5.376  -2.019 -30.232  1.00  0.00    -0.390 OA
ATOM     11  H   UNL     1      -5.892  -1.195 -30.355  1.00  0.00     0.211 HD
ENDBRANCH   6  10
BRANCH   7  12
ATOM     12  O   UNL     1      -6.477  -0.956 -27.939  1.00  0.00    -0.378 OA
ATOM     13  H   UNL     1      -6.433  -1.158 -28.899  1.00  0.00     0.212 HD
ENDBRANCH   7  12
BRANCH   7  14
ATOM     14  C   UNL     1      -5.097  -0.850 -25.956  1.00  0.00     0.335 C 
ATOM     15  O   UNL     1      -5.569  -1.779 -25.322  1.00  0.00    -0.249 OA
BRANCH  14  16
ATOM     16  O   UNL     1      -4.494   0.218 -25.374  1.00  0.00    -0.479 OA
ATOM     17  H   UNL     1      -3.570  -0.017 -25.129  1.00  0.00     0.296 HD
ENDBRANCH  14  16
ENDBRANCH   7  14
BRANCH   8  18
ATOM     18  O   UNL     1      -3.795  -0.204 -31.491  1.00  0.00    -0.387 OA
ATOM     19  H   UNL     1      -4.522  -0.808 -31.748  1.00  0.00     0.211 HD
ENDBRANCH   8  18
ENDBRANCH   3   4
ENDBRANCH   1   3
BRANCH   1  20
ATOM     20  C   UNL     1      -6.257   2.333 -30.665  1.00  0.00     0.094 C 
ATOM     21  C   UNL     1      -6.639   1.942 -31.891  1.00  0.00     0.016 C 
BRANCH  21  22
ATOM     22  C   UNL     1      -7.931   1.300 -32.166  1.00  0.00    -0.021 A 
ATOM     23  C   UNL     1      -8.872   1.062 -31.150  1.00  0.00     0.058 A 
ATOM     24  C   UNL     1      -8.251   0.968 -33.492  1.00  0.00     0.012 A 
ATOM     25  C   UNL     1     -10.095   0.481 -31.472  1.00  0.00     0.157 A 
ATOM     26  C   UNL     1      -9.481   0.382 -33.805  1.00  0.00     0.051 A 
ATOM     27  C   UNL     1     -10.392   0.142 -32.788  1.00  0.00     0.157 A 
BRANCH  25  28
ATOM     28  O   UNL     1     -11.047   0.226 -30.522  1.00  0.00    -0.504 OA
ATOM     29  H   UNL     1     -11.741  -0.323 -30.924  1.00  0.00     0.293 HD
ENDBRANCH  25  28
BRANCH  27  30
ATOM     30  O   UNL     1     -11.595  -0.427 -33.093  1.00  0.00    -0.504 OA
ATOM     31  H   UNL     1     -11.414  -0.972 -33.885  1.00  0.00     0.293 HD
ENDBRANCH  27  30
ENDBRANCH  21  22
ENDBRANCH   1  20
TORSDOF 11
ENDMDL
MODEL 2
REMARK VINA RESULT:      -8.1      1.742      4.201
REMARK SMILES O=C(/C=C/c1ccc(O)c(O)c1)O[C@@H]1C[C@](O)(C(=O)O)C[C@@H](O)[C@H]1O
REMARK SMILES IDX 2 1 1 2 13 3 14 4 21 5 22 6 16 7 24 8 15 9 23 10 17 12 18 14
REMARK SMILES IDX 19 15 20 16 25 18 3 20 4 21 5 22 12 23 6 24 10 25 7 26 8 27
REMARK SMILES IDX 11 28 9 30
REMARK H PARENT 23 11 17 13 20 17 25 19 11 29 9 31
ROOT
ATOM      1  C   UNL     1      -7.051  -1.113 -27.081  1.00  0.00     0.331 C 
ATOM      2  O   UNL     1      -7.577  -1.308 -25.994  1.00  0.00    -0.247 OA
ENDROOT
BRANCH   1   3
ATOM      3  O   UNL     1      -5.791  -1.466 -27.425  1.00  0.00    -0.456 OA
BRANCH   3   4
ATOM      4  C   UNL     1      -4.959  -0.402 -27.934  1.00  0.00     0.211 C 
ATOM      5  C   UNL     1      -2.242   0.504 -28.736  1.00  0.00     0.082 C 
ATOM      6  C   UNL     1      -2.854   0.934 -27.403  1.00  0.00     0.150 C 
ATOM      7  C   UNL     1      -3.317   0.174 -29.779  1.00  0.00     0.167 C 
ATOM      8  C   UNL     1      -3.887  -0.077 -26.878  1.00  0.00     0.184 C 
ATOM      9  C   UNL     1      -4.310  -0.858 -29.246  1.00  0.00     0.095 C 
BRANCH   6  10
ATOM     10  O   UNL     1      -3.490   2.217 -27.523  1.00  0.00    -0.390 OA
ATOM     11  H   UNL     1      -4.377   2.162 -27.111  1.00  0.00     0.211 HD
ENDBRANCH   6  10
BRANCH   7  12
ATOM     12  O   UNL     1      -4.018   1.396 -30.101  1.00  0.00    -0.378 OA
ATOM     13  H   UNL     1      -3.354   2.117 -30.125  1.00  0.00     0.212 HD
ENDBRANCH   7  12
BRANCH   7  14
ATOM     14  C   UNL     1      -2.627  -0.338 -31.053  1.00  0.00     0.335 C 
ATOM     15  O   UNL     1      -3.073  -1.194 -31.798  1.00  0.00    -0.249 OA
BRANCH  14  16
ATOM     16  O   UNL     1      -1.427   0.266 -31.248  1.00  0.00    -0.479 OA
ATOM     17  H   UNL     1      -0.712  -0.410 -31.240  1.00  0.00     0.296 HD
ENDBRANCH  14  16
ENDBRANCH   7  14
BRANCH   8  18
ATOM     18  O   UNL     1      -4.514   0.472 -25.710  1.00  0.00    -0.387 OA
ATOM     19  H   UNL     1      -3.803   0.559 -25.042  1.00  0.00     0.211 HD
ENDBRANCH   8  18
ENDBRANCH   3   4
ENDBRANCH   1   3
BRANCH   1  20
ATOM     20  C   UNL     1      -7.745  -0.401 -28.173  1.00  0.00     0.094 C 
ATOM     21  C   UNL     1      -8.190  -0.991 -29.294  1.00  0.00     0.016 C 
BRANCH  21  22
ATOM     22  C   UNL     1      -8.889  -0.268 -30.363  1.00  0.00    -0.021 A 
ATOM     23  C   UNL     1      -9.996  -0.817 -31.030  1.00  0.00     0.058 A 
ATOM     24  C   UNL     1      -8.468   1.033 -30.684  1.00  0.00     0.012 A 
ATOM     25  C   UNL     1     -10.643  -0.073 -32.013  1.00  0.00     0.157 A 
ATOM     26  C   UNL     1      -9.123   1.771 -31.674  1.00  0.00     0.051 A 
ATOM     27  C   UNL     1     -10.205   1.208 -32.332  1.00  0.00     0.157 A 
BRANCH  25  28
ATOM     28  O   UNL     1     -11.725  -0.561 -32.693  1.00  0.00    -0.504 OA
ATOM     29  H   UNL     1     -11.855  -1.489 -32.436  1.00  0.00     0.293 HD
ENDBRANCH  25  28
BRANCH  27  30
ATOM     30  O   UNL     1     -10.846   1.929 -33.297  1.00  0.00    -0.504 OA
ATOM     31  H   UNL     1     -11.797   1.778 -33.125  1.00  0.00     0.293 HD
ENDBRANCH  27  30
ENDBRANCH  21  22
ENDBRANCH   1  20
TORSDOF 11
ENDMDL
MODEL 3
REMARK VINA RESULT:      -7.8      4.384      6.901
REMARK SMILES O=C(/C=C/c1ccc(O)c(O)c1)O[C@@H]1C[C@](O)(C(=O)O)C[C@@H](O)[C@H]1O
REMARK SMILES IDX 2 1 1 2 13 3 14 4 21 5 22 6 16 7 24 8 15 9 23 10 17 12 18 14
REMARK SMILES IDX 19 15 20 16 25 18 3 20 4 21 5 22 12 23 6 24 10 25 7 26 8 27
REMARK SMILES IDX 11 28 9 30
REMARK H PARENT 23 11 17 13 20 17 25 19 11 29 9 31
ROOT
ATOM      1  C   UNL     1      -7.154  -2.367 -29.272  1.00  0.00     0.331 C 
ATOM      2  O   UNL     1      -6.245  -1.984 -28.549  1.00  0.00    -0.247 OA
ENDROOT
BRANCH   1   3
ATOM      3  O   UNL     1      -7.290  -2.083 -30.589  1.00  0.00    -0.456 OA
BRANCH   3   4
ATOM      4  C   UNL     1      -7.583  -0.705 -30.904  1.00  0.00     0.211 C 
ATOM      5  C   UNL     1      -7.943   1.374 -33.001  1.00  0.00     0.082 C 
ATOM      6  C   UNL     1      -6.662   1.307 -32.170  1.00  0.00     0.150 C 
ATOM      7  C   UNL     1      -9.140   0.773 -32.253  1.00  0.00     0.167 C 
ATOM      8  C   UNL     1      -6.374  -0.112 -31.650  1.00  0.00     0.184 C 
ATOM      9  C   UNL     1      -8.842  -0.647 -31.777  1.00  0.00     0.095 C 
BRANCH   6  10
ATOM     10  O   UNL     1      -6.732   2.201 -31.048  1.00  0.00    -0.390 OA
ATOM     11  H   UNL     1      -7.674   2.405 -30.873  1.00  0.00     0.211 HD
ENDBRANCH   6  10
BRANCH   7  12
ATOM     12  O   UNL     1      -9.425   1.614 -31.113  1.00  0.00    -0.378 OA
ATOM     13  H   UNL     1      -8.614   2.133 -30.923  1.00  0.00     0.212 HD
ENDBRANCH   7  12
BRANCH   7  14
ATOM     14  C   UNL     1     -10.362   0.792 -33.185  1.00  0.00     0.335 C 
ATOM     15  O   UNL     1     -10.701  -0.122 -33.917  1.00  0.00    -0.249 OA
BRANCH  14  16
ATOM     16  O   UNL     1     -11.024   1.975 -33.118  1.00  0.00    -0.479 OA
ATOM     17  H   UNL     1     -11.896   1.892 -33.567  1.00  0.00     0.296 HD
ENDBRANCH  14  16
ENDBRANCH   7  14
BRANCH   8  18
ATOM     18  O   UNL     1      -5.245  -0.055 -30.766  1.00  0.00    -0.387 OA
ATOM     19  H   UNL     1      -4.486   0.224 -31.320  1.00  0.00     0.211 HD
ENDBRANCH   8  18
ENDBRANCH   3   4
ENDBRANCH   1   3
BRANCH   1  20
ATOM     20  C   UNL     1      -8.276  -3.180 -28.761  1.00  0.00     0.094 C 
ATOM     21  C   UNL     1      -9.238  -2.712 -27.950  1.00  0.00     0.016 C 
BRANCH  21  22
ATOM     22  C   UNL     1     -10.352  -3.535 -27.462  1.00  0.00    -0.021 A 
ATOM     23  C   UNL     1     -11.235  -3.076 -26.471  1.00  0.00     0.058 A 
ATOM     24  C   UNL     1     -10.569  -4.792 -28.048  1.00  0.00     0.012 A 
ATOM     25  C   UNL     1     -12.294  -3.884 -26.070  1.00  0.00     0.157 A 
ATOM     26  C   UNL     1     -11.634  -5.598 -27.637  1.00  0.00     0.051 A 
ATOM     27  C   UNL     1     -12.487  -5.135 -26.647  1.00  0.00     0.157 A 
BRANCH  25  28
ATOM     28  O   UNL     1     -13.183  -3.487 -25.108  1.00  0.00    -0.504 OA
ATOM     29  H   UNL     1     -14.019  -3.250 -25.543  1.00  0.00     0.293 HD
ENDBRANCH  25  28
BRANCH  27  30
ATOM     30  O   UNL     1     -13.530  -5.919 -26.247  1.00  0.00    -0.504 OA
ATOM     31  H   UNL     1     -14.310  -5.541 -26.701  1.00  0.00     0.293 HD
ENDBRANCH  27  30
ENDBRANCH  21  22
ENDBRANCH   1  20
TORSDOF 11
ENDMDL
MODEL 4
REMARK VINA RESULT:      -7.8      5.388      7.114
REMARK SMILES O=C(/C=C/c1ccc(O)c(O)c1)O[C@@H]1C[C@](O)(C(=O)O)C[C@@H](O)[C@H]1O
REMARK SMILES IDX 2 1 1 2 13 3 14 4 21 5 22 6 16 7 24 8 15 9 23 10 17 12 18 14
REMARK SMILES IDX 19 15 20 16 25 18 3 20 4 21 5 22 12 23 6 24 10 25 7 26 8 27
REMARK SMILES IDX 11 28 9 30
REMARK H PARENT 23 11 17 13 20 17 25 19 11 29 9 31
ROOT
ATOM      1  C   UNL     1     -10.053  -5.006 -29.912  1.00  0.00     0.331 C 
ATOM      2  O   UNL     1     -10.731  -5.842 -30.493  1.00  0.00    -0.247 OA
ENDROOT
BRANCH   1   3
ATOM      3  O   UNL     1      -9.695  -5.046 -28.607  1.00  0.00    -0.456 OA
BRANCH   3   4
ATOM      4  C   UNL     1     -10.750  -4.775 -27.660  1.00  0.00     0.211 C 
ATOM      5  C   UNL     1     -11.609  -4.662 -24.815  1.00  0.00     0.082 C 
ATOM      6  C   UNL     1     -12.026  -5.822 -25.717  1.00  0.00     0.150 C 
ATOM      7  C   UNL     1     -11.327  -3.386 -25.618  1.00  0.00     0.167 C 
ATOM      8  C   UNL     1     -11.028  -6.063 -26.863  1.00  0.00     0.184 C 
ATOM      9  C   UNL     1     -10.308  -3.642 -26.727  1.00  0.00     0.095 C 
BRANCH   6  10
ATOM     10  O   UNL     1     -13.326  -5.590 -26.284  1.00  0.00    -0.390 OA
ATOM     11  H   UNL     1     -13.651  -6.431 -26.666  1.00  0.00     0.211 HD
ENDBRANCH   6  10
BRANCH   7  12
ATOM     12  O   UNL     1     -12.572  -2.939 -26.202  1.00  0.00    -0.378 OA
ATOM     13  H   UNL     1     -13.156  -2.658 -25.465  1.00  0.00     0.212 HD
ENDBRANCH   7  12
BRANCH   7  14
ATOM     14  C   UNL     1     -10.826  -2.298 -24.655  1.00  0.00     0.335 C 
ATOM     15  O   UNL     1      -9.740  -1.747 -24.722  1.00  0.00    -0.249 OA
BRANCH  14  16
ATOM     16  O   UNL     1     -11.738  -2.030 -23.687  1.00  0.00    -0.479 OA
ATOM     17  H   UNL     1     -11.573  -1.133 -23.317  1.00  0.00     0.296 HD
ENDBRANCH  14  16
ENDBRANCH   7  14
BRANCH   8  18
ATOM     18  O   UNL     1     -11.567  -7.063 -27.738  1.00  0.00    -0.387 OA
ATOM     19  H   UNL     1     -10.985  -7.846 -27.639  1.00  0.00     0.211 HD
ENDBRANCH   8  18
ENDBRANCH   3   4
ENDBRANCH   1   3
BRANCH   1  20
ATOM     20  C   UNL     1      -9.564  -3.785 -30.584  1.00  0.00     0.094 C 
ATOM     21  C   UNL     1     -10.298  -2.675 -30.757  1.00  0.00     0.016 C 
BRANCH  21  22
ATOM     22  C   UNL     1      -9.788  -1.467 -31.419  1.00  0.00    -0.021 A 
ATOM     23  C   UNL     1     -10.644  -0.443 -31.857  1.00  0.00     0.058 A 
ATOM     24  C   UNL     1      -8.400  -1.312 -31.562  1.00  0.00     0.012 A 
ATOM     25  C   UNL     1     -10.104   0.696 -32.447  1.00  0.00     0.157 A 
ATOM     26  C   UNL     1      -7.867  -0.165 -32.159  1.00  0.00     0.051 A 
ATOM     27  C   UNL     1      -8.728   0.829 -32.599  1.00  0.00     0.157 A 
BRANCH  25  28
ATOM     28  O   UNL     1     -10.893   1.722 -32.892  1.00  0.00    -0.504 OA
ATOM     29  H   UNL     1     -11.718   1.345 -33.240  1.00  0.00     0.293 HD
ENDBRANCH  25  28
BRANCH  27  30
ATOM     30  O   UNL     1      -8.209   1.950 -33.178  1.00  0.00    -0.504 OA
ATOM     31  H   UNL     1      -8.784   2.115 -33.952  1.00  0.00     0.293 HD
ENDBRANCH  27  30
ENDBRANCH  21  22
ENDBRANCH   1  20
TORSDOF 11
ENDMDL
MODEL 5
REMARK VINA RESULT:      -7.7      3.860      4.613
REMARK SMILES O=C(/C=C/c1ccc(O)c(O)c1)O[C@@H]1C[C@](O)(C(=O)O)C[C@@H](O)[C@H]1O
REMARK SMILES IDX 2 1 1 2 13 3 14 4 21 5 22 6 16 7 24 8 15 9 23 10 17 12 18 14
REMARK SMILES IDX 19 15 20 16 25 18 3 20 4 21 5 22 12 23 6 24 10 25 7 26 8 27
REMARK SMILES IDX 11 28 9 30
REMARK H PARENT 23 11 17 13 20 17 25 19 11 29 9 31
ROOT
ATOM      1  C   UNL     1      -7.717  -0.684 -30.887  1.00  0.00     0.331 C 
ATOM      2  O   UNL     1      -7.776  -0.615 -32.107  1.00  0.00    -0.247 OA
ENDROOT
BRANCH   1   3
ATOM      3  O   UNL     1      -6.922   0.068 -30.090  1.00  0.00    -0.456 OA
BRANCH   3   4
ATOM      4  C   UNL     1      -5.952  -0.661 -29.308  1.00  0.00     0.211 C 
ATOM      5  C   UNL     1      -3.785  -0.575 -27.272  1.00  0.00     0.082 C 
ATOM      6  C   UNL     1      -3.464  -0.740 -28.757  1.00  0.00     0.150 C 
ATOM      7  C   UNL     1      -5.187  -1.096 -26.930  1.00  0.00     0.167 C 
ATOM      8  C   UNL     1      -4.549  -0.134 -29.663  1.00  0.00     0.184 C 
ATOM      9  C   UNL     1      -6.251  -0.454 -27.819  1.00  0.00     0.095 C 
BRANCH   6  10
ATOM     10  O   UNL     1      -3.307  -2.127 -29.096  1.00  0.00    -0.390 OA
ATOM     11  H   UNL     1      -3.101  -2.190 -30.052  1.00  0.00     0.211 HD
ENDBRANCH   6  10
BRANCH   7  12
ATOM     12  O   UNL     1      -5.194  -2.528 -27.127  1.00  0.00    -0.378 OA
ATOM     13  H   UNL     1      -5.951  -2.890 -26.618  1.00  0.00     0.212 HD
ENDBRANCH   7  12
BRANCH   7  14
ATOM     14  C   UNL     1      -5.470  -0.810 -25.446  1.00  0.00     0.335 C 
ATOM     15  O   UNL     1      -6.118  -1.528 -24.704  1.00  0.00    -0.249 OA
BRANCH  14  16
ATOM     16  O   UNL     1      -4.923   0.367 -25.051  1.00  0.00    -0.479 OA
ATOM     17  H   UNL     1      -5.511   1.110 -25.316  1.00  0.00     0.296 HD
ENDBRANCH  14  16
ENDBRANCH   7  14
BRANCH   8  18
ATOM     18  O   UNL     1      -4.243  -0.460 -31.026  1.00  0.00    -0.387 OA
ATOM     19  H   UNL     1      -3.277  -0.619 -31.052  1.00  0.00     0.211 HD
ENDBRANCH   8  18
ENDBRANCH   3   4
ENDBRANCH   1   3
BRANCH   1  20
ATOM     20  C   UNL     1      -8.507  -1.665 -30.116  1.00  0.00     0.094 C 
ATOM     21  C   UNL     1      -8.644  -2.956 -30.456  1.00  0.00     0.016 C 
BRANCH  21  22
ATOM     22  C   UNL     1      -9.425  -3.919 -29.669  1.00  0.00    -0.021 A 
ATOM     23  C   UNL     1      -9.410  -3.914 -28.264  1.00  0.00     0.058 A 
ATOM     24  C   UNL     1     -10.252  -4.829 -30.344  1.00  0.00     0.012 A 
ATOM     25  C   UNL     1     -10.196  -4.827 -27.567  1.00  0.00     0.157 A 
ATOM     26  C   UNL     1     -11.036  -5.744 -29.635  1.00  0.00     0.051 A 
ATOM     27  C   UNL     1     -10.998  -5.735 -28.250  1.00  0.00     0.157 A 
BRANCH  25  28
ATOM     28  O   UNL     1     -10.217  -4.866 -26.199  1.00  0.00    -0.504 OA
ATOM     29  H   UNL     1      -9.826  -4.042 -25.864  1.00  0.00     0.293 HD
ENDBRANCH  25  28
BRANCH  27  30
ATOM     30  O   UNL     1     -11.765  -6.626 -27.557  1.00  0.00    -0.504 OA
ATOM     31  H   UNL     1     -11.158  -7.363 -27.349  1.00  0.00     0.293 HD
ENDBRANCH  27  30
ENDBRANCH  21  22
ENDBRANCH   1  20
TORSDOF 11
ENDMDL
MODEL 6
REMARK VINA RESULT:      -7.7      1.998      4.421
REMARK SMILES O=C(/C=C/c1ccc(O)c(O)c1)O[C@@H]1C[C@](O)(C(=O)O)C[C@@H](O)[C@H]1O
REMARK SMILES IDX 2 1 1 2 13 3 14 4 21 5 22 6 16 7 24 8 15 9 23 10 17 12 18 14
REMARK SMILES IDX 19 15 20 16 25 18 3 20 4 21 5 22 12 23 6 24 10 25 7 26 8 27
REMARK SMILES IDX 11 28 9 30
REMARK H PARENT 23 11 17 13 20 17 25 19 11 29 9 31
ROOT
ATOM      1  C   UNL     1      -7.683  -3.191 -28.453  1.00  0.00     0.331 C 
ATOM      2  O   UNL     1      -8.436  -4.107 -28.151  1.00  0.00    -0.247 OA
ENDROOT
BRANCH   1   3
ATOM      3  O   UNL     1      -6.379  -3.091 -28.104  1.00  0.00    -0.456 OA
BRANCH   3   4
ATOM      4  C   UNL     1      -5.821  -1.761 -28.145  1.00  0.00     0.211 C 
ATOM      5  C   UNL     1      -3.396  -0.044 -27.999  1.00  0.00     0.082 C 
ATOM      6  C   UNL     1      -4.356  -0.153 -26.815  1.00  0.00     0.150 C 
ATOM      7  C   UNL     1      -4.100  -0.326 -29.333  1.00  0.00     0.167 C 
ATOM      8  C   UNL     1      -5.121  -1.487 -26.801  1.00  0.00     0.184 C 
ATOM      9  C   UNL     1      -4.823  -1.671 -29.305  1.00  0.00     0.095 C 
BRANCH   6  10
ATOM     10  O   UNL     1      -5.309   0.922 -26.828  1.00  0.00    -0.390 OA
ATOM     11  H   UNL     1      -5.831   0.882 -26.000  1.00  0.00     0.211 HD
ENDBRANCH   6  10
BRANCH   7  12
ATOM     12  O   UNL     1      -5.057   0.731 -29.567  1.00  0.00    -0.378 OA
ATOM     13  H   UNL     1      -4.551   1.532 -29.823  1.00  0.00     0.212 HD
ENDBRANCH   7  12
BRANCH   7  14
ATOM     14  C   UNL     1      -3.054  -0.290 -30.458  1.00  0.00     0.335 C 
ATOM     15  O   UNL     1      -3.138  -0.893 -31.515  1.00  0.00    -0.249 OA
BRANCH  14  16
ATOM     16  O   UNL     1      -1.992   0.488 -30.129  1.00  0.00    -0.479 OA
ATOM     17  H   UNL     1      -1.556   0.816 -30.948  1.00  0.00     0.296 HD
ENDBRANCH  14  16
ENDBRANCH   7  14
BRANCH   8  18
ATOM     18  O   UNL     1      -6.098  -1.444 -25.751  1.00  0.00    -0.387 OA
ATOM     19  H   UNL     1      -6.513  -2.331 -25.736  1.00  0.00     0.211 HD
ENDBRANCH   8  18
ENDBRANCH   3   4
ENDBRANCH   1   3
BRANCH   1  20
ATOM     20  C   UNL     1      -8.141  -2.020 -29.228  1.00  0.00     0.094 C 
ATOM     21  C   UNL     1      -8.281  -2.008 -30.563  1.00  0.00     0.016 C 
BRANCH  21  22
ATOM     22  C   UNL     1      -8.750  -0.837 -31.314  1.00  0.00    -0.021 A 
ATOM     23  C   UNL     1      -9.615  -0.958 -32.414  1.00  0.00     0.058 A 
ATOM     24  C   UNL     1      -8.365   0.441 -30.880  1.00  0.00     0.012 A 
ATOM     25  C   UNL     1     -10.055   0.188 -33.070  1.00  0.00     0.157 A 
ATOM     26  C   UNL     1      -8.811   1.586 -31.546  1.00  0.00     0.051 A 
ATOM     27  C   UNL     1      -9.652   1.447 -32.638  1.00  0.00     0.157 A 
BRANCH  25  28
ATOM     28  O   UNL     1     -10.897   0.126 -34.147  1.00  0.00    -0.504 OA
ATOM     29  H   UNL     1     -10.551  -0.537 -34.767  1.00  0.00     0.293 HD
ENDBRANCH  25  28
BRANCH  27  30
ATOM     30  O   UNL     1     -10.091   2.565 -33.287  1.00  0.00    -0.504 OA
ATOM     31  H   UNL     1      -9.731   3.309 -32.764  1.00  0.00     0.293 HD
ENDBRANCH  27  30
ENDBRANCH  21  22
ENDBRANCH   1  20
TORSDOF 11
ENDMDL
MODEL 7
REMARK VINA RESULT:      -7.6      3.767      6.712
REMARK SMILES O=C(/C=C/c1ccc(O)c(O)c1)O[C@@H]1C[C@](O)(C(=O)O)C[C@@H](O)[C@H]1O
REMARK SMILES IDX 2 1 1 2 13 3 14 4 21 5 22 6 16 7 24 8 15 9 23 10 17 12 18 14
REMARK SMILES IDX 19 15 20 16 25 18 3 20 4 21 5 22 12 23 6 24 10 25 7 26 8 27
REMARK SMILES IDX 11 28 9 30
REMARK H PARENT 23 11 17 13 20 17 25 19 11 29 9 31
ROOT
ATOM      1  C   UNL     1      -8.383  -0.774 -31.223  1.00  0.00     0.331 C 
ATOM      2  O   UNL     1      -8.347  -0.786 -32.446  1.00  0.00    -0.247 OA
ENDROOT
BRANCH   1   3
ATOM      3  O   UNL     1      -9.470  -1.038 -30.461  1.00  0.00    -0.456 OA
BRANCH   3   4
ATOM      4  C   UNL     1      -9.245  -1.907 -29.331  1.00  0.00     0.211 C 
ATOM      5  C   UNL     1     -10.402  -3.759 -27.311  1.00  0.00     0.082 C 
ATOM      6  C   UNL     1     -10.011  -2.330 -26.937  1.00  0.00     0.150 C 
ATOM      7  C   UNL     1      -9.590  -4.279 -28.504  1.00  0.00     0.167 C 
ATOM      8  C   UNL     1     -10.061  -1.373 -28.140  1.00  0.00     0.184 C 
ATOM      9  C   UNL     1      -9.684  -3.329 -29.697  1.00  0.00     0.095 C 
BRANCH   6  10
ATOM     10  O   UNL     1      -8.688  -2.292 -26.376  1.00  0.00    -0.390 OA
ATOM     11  H   UNL     1      -8.737  -1.863 -25.497  1.00  0.00     0.211 HD
ENDBRANCH   6  10
BRANCH   7  12
ATOM     12  O   UNL     1      -8.211  -4.398 -28.089  1.00  0.00    -0.378 OA
ATOM     13  H   UNL     1      -7.877  -5.258 -28.424  1.00  0.00     0.212 HD
ENDBRANCH   7  12
BRANCH   7  14
ATOM     14  C   UNL     1     -10.105  -5.678 -28.877  1.00  0.00     0.335 C 
ATOM     15  O   UNL     1     -10.685  -5.960 -29.912  1.00  0.00    -0.249 OA
BRANCH  14  16
ATOM     16  O   UNL     1      -9.857  -6.581 -27.895  1.00  0.00    -0.479 OA
ATOM     17  H   UNL     1      -9.476  -7.400 -28.287  1.00  0.00     0.296 HD
ENDBRANCH  14  16
ENDBRANCH   7  14
BRANCH   8  18
ATOM     18  O   UNL     1      -9.541  -0.099 -27.734  1.00  0.00    -0.387 OA
ATOM     19  H   UNL     1      -9.584  -0.092 -26.755  1.00  0.00     0.211 HD
ENDBRANCH   8  18
ENDBRANCH   3   4
ENDBRANCH   1   3
BRANCH   1  20
ATOM     20  C   UNL     1      -7.206  -0.413 -30.406  1.00  0.00     0.094 C 
ATOM     21  C   UNL     1      -5.954  -0.334 -30.882  1.00  0.00     0.016 C 
BRANCH  21  22
ATOM     22  C   UNL     1      -4.799   0.039 -30.055  1.00  0.00    -0.021 A 
ATOM     23  C   UNL     1      -4.709   1.294 -29.429  1.00  0.00     0.058 A 
ATOM     24  C   UNL     1      -3.788  -0.911 -29.841  1.00  0.00     0.012 A 
ATOM     25  C   UNL     1      -3.608   1.582 -28.628  1.00  0.00     0.157 A 
ATOM     26  C   UNL     1      -2.685  -0.611 -29.037  1.00  0.00     0.051 A 
ATOM     27  C   UNL     1      -2.605   0.637 -28.439  1.00  0.00     0.157 A 
BRANCH  25  28
ATOM     28  O   UNL     1      -3.470   2.788 -27.997  1.00  0.00    -0.504 OA
ATOM     29  H   UNL     1      -2.560   3.102 -28.133  1.00  0.00     0.293 HD
ENDBRANCH  25  28
BRANCH  27  30
ATOM     30  O   UNL     1      -1.530   0.930 -27.651  1.00  0.00    -0.504 OA
ATOM     31  H   UNL     1      -1.801   1.726 -27.152  1.00  0.00     0.293 HD
ENDBRANCH  27  30
ENDBRANCH  21  22
ENDBRANCH   1  20
TORSDOF 11
ENDMDL
MODEL 8
REMARK VINA RESULT:      -7.6      4.828      7.965
REMARK SMILES O=C(/C=C/c1ccc(O)c(O)c1)O[C@@H]1C[C@](O)(C(=O)O)C[C@@H](O)[C@H]1O
REMARK SMILES IDX 2 1 1 2 13 3 14 4 21 5 22 6 16 7 24 8 15 9 23 10 17 12 18 14
REMARK SMILES IDX 19 15 20 16 25 18 3 20 4 21 5 22 12 23 6 24 10 25 7 26 8 27
REMARK SMILES IDX 11 28 9 30
REMARK H PARENT 23 11 17 13 20 17 25 19 11 29 9 31
ROOT
ATOM      1  C   UNL     1      -8.141  -0.961 -25.910  1.00  0.00     0.331 C 
ATOM      2  O   UNL     1      -8.082  -0.874 -24.691  1.00  0.00    -0.247 OA
ENDROOT
BRANCH   1   3
ATOM      3  O   UNL     1      -9.194  -1.430 -26.619  1.00  0.00    -0.456 OA
BRANCH   3   4
ATOM      4  C   UNL     1      -9.913  -2.528 -26.019  1.00  0.00     0.211 C 
ATOM      5  C   UNL     1     -12.257  -4.357 -26.122  1.00  0.00     0.082 C 
ATOM      6  C   UNL     1     -12.215  -3.185 -25.142  1.00  0.00     0.150 C 
ATOM      7  C   UNL     1     -10.849  -4.835 -26.500  1.00  0.00     0.167 C 
ATOM      8  C   UNL     1     -11.322  -2.036 -25.640  1.00  0.00     0.184 C 
ATOM      9  C   UNL     1      -9.993  -3.683 -27.023  1.00  0.00     0.095 C 
BRANCH   6  10
ATOM     10  O   UNL     1     -11.740  -3.610 -23.855  1.00  0.00    -0.390 OA
ATOM     11  H   UNL     1     -12.183  -3.070 -23.168  1.00  0.00     0.211 HD
ENDBRANCH   6  10
BRANCH   7  12
ATOM     12  O   UNL     1     -10.234  -5.395 -25.318  1.00  0.00    -0.378 OA
ATOM     13  H   UNL     1      -9.813  -4.656 -24.829  1.00  0.00     0.212 HD
ENDBRANCH   7  12
BRANCH   7  14
ATOM     14  C   UNL     1     -10.974  -5.947 -27.554  1.00  0.00     0.335 C 
ATOM     15  O   UNL     1     -11.989  -6.217 -28.173  1.00  0.00    -0.249 OA
BRANCH  14  16
ATOM     16  O   UNL     1      -9.807  -6.624 -27.707  1.00  0.00    -0.479 OA
ATOM     17  H   UNL     1      -9.143  -6.042 -28.142  1.00  0.00     0.296 HD
ENDBRANCH  14  16
ENDBRANCH   7  14
BRANCH   8  18
ATOM     18  O   UNL     1     -11.223  -1.050 -24.602  1.00  0.00    -0.387 OA
ATOM     19  H   UNL     1     -12.145  -0.839 -24.346  1.00  0.00     0.211 HD
ENDBRANCH   8  18
ENDBRANCH   3   4
ENDBRANCH   1   3
BRANCH   1  20
ATOM     20  C   UNL     1      -7.008  -0.588 -26.780  1.00  0.00     0.094 C 
ATOM     21  C   UNL     1      -5.779  -1.120 -26.686  1.00  0.00     0.016 C 
BRANCH  21  22
ATOM     22  C   UNL     1      -4.668  -0.744 -27.570  1.00  0.00    -0.021 A 
ATOM     23  C   UNL     1      -3.621   0.084 -27.135  1.00  0.00     0.058 A 
ATOM     24  C   UNL     1      -4.629  -1.278 -28.868  1.00  0.00     0.012 A 
ATOM     25  C   UNL     1      -2.575   0.381 -28.004  1.00  0.00     0.157 A 
ATOM     26  C   UNL     1      -3.576  -0.972 -29.735  1.00  0.00     0.051 A 
ATOM     27  C   UNL     1      -2.558  -0.141 -29.293  1.00  0.00     0.157 A 
BRANCH  25  28
ATOM     28  O   UNL     1      -1.531   1.183 -27.631  1.00  0.00    -0.504 OA
ATOM     29  H   UNL     1      -1.894   2.006 -27.261  1.00  0.00     0.293 HD
ENDBRANCH  25  28
BRANCH  27  30
ATOM     30  O   UNL     1      -1.527   0.156 -30.137  1.00  0.00    -0.504 OA
ATOM     31  H   UNL     1      -0.803  -0.439 -29.859  1.00  0.00     0.293 HD
ENDBRANCH  27  30
ENDBRANCH  21  22
ENDBRANCH   1  20
TORSDOF 11
ENDMDL
MODEL 9
REMARK VINA RESULT:      -7.6      3.654      4.861
REMARK SMILES O=C(/C=C/c1ccc(O)c(O)c1)O[C@@H]1C[C@](O)(C(=O)O)C[C@@H](O)[C@H]1O
REMARK SMILES IDX 2 1 1 2 13 3 14 4 21 5 22 6 16 7 24 8 15 9 23 10 17 12 18 14
REMARK SMILES IDX 19 15 20 16 25 18 3 20 4 21 5 22 12 23 6 24 10 25 7 26 8 27
REMARK SMILES IDX 11 28 9 30
REMARK H PARENT 23 11 17 13 20 17 25 19 11 29 9 31
ROOT
ATOM      1  C   UNL     1      -7.023  -0.375 -31.505  1.00  0.00     0.331 C 
ATOM      2  O   UNL     1      -7.851   0.347 -32.043  1.00  0.00    -0.247 OA
ENDROOT
BRANCH   1   3
ATOM      3  O   UNL     1      -5.679  -0.225 -31.572  1.00  0.00    -0.456 OA
BRANCH   3   4
ATOM      4  C   UNL     1      -5.016   0.040 -30.318  1.00  0.00     0.211 C 
ATOM      5  C   UNL     1      -2.672   1.213 -28.910  1.00  0.00     0.082 C 
ATOM      6  C   UNL     1      -2.798  -0.297 -29.107  1.00  0.00     0.150 C 
ATOM      7  C   UNL     1      -4.042   1.903 -28.900  1.00  0.00     0.167 C 
ATOM      8  C   UNL     1      -3.645  -0.661 -30.338  1.00  0.00     0.184 C 
ATOM      9  C   UNL     1      -4.850   1.555 -30.149  1.00  0.00     0.095 C 
BRANCH   6  10
ATOM     10  O   UNL     1      -3.383  -0.917 -27.950  1.00  0.00    -0.390 OA
ATOM     11  H   UNL     1      -2.973  -1.799 -27.831  1.00  0.00     0.211 HD
ENDBRANCH   6  10
BRANCH   7  12
ATOM     12  O   UNL     1      -4.758   1.461 -27.724  1.00  0.00    -0.378 OA
ATOM     13  H   UNL     1      -5.459   2.123 -27.542  1.00  0.00     0.212 HD
ENDBRANCH   7  12
BRANCH   7  14
ATOM     14  C   UNL     1      -3.827   3.421 -28.793  1.00  0.00     0.335 C 
ATOM     15  O   UNL     1      -4.377   4.259 -29.489  1.00  0.00    -0.249 OA
BRANCH  14  16
ATOM     16  O   UNL     1      -2.920   3.731 -27.832  1.00  0.00    -0.479 OA
ATOM     17  H   UNL     1      -3.325   4.352 -27.184  1.00  0.00     0.296 HD
ENDBRANCH  14  16
ENDBRANCH   7  14
BRANCH   8  18
ATOM     18  O   UNL     1      -3.832  -2.083 -30.363  1.00  0.00    -0.387 OA
ATOM     19  H   UNL     1      -4.253  -2.311 -29.508  1.00  0.00     0.211 HD
ENDBRANCH   8  18
ENDBRANCH   3   4
ENDBRANCH   1   3
BRANCH   1  20
ATOM     20  C   UNL     1      -7.409  -1.566 -30.722  1.00  0.00     0.094 C 
ATOM     21  C   UNL     1      -8.679  -1.921 -30.466  1.00  0.00     0.016 C 
BRANCH  21  22
ATOM     22  C   UNL     1      -9.042  -3.117 -29.695  1.00  0.00    -0.021 A 
ATOM     23  C   UNL     1      -9.422  -3.042 -28.345  1.00  0.00     0.058 A 
ATOM     24  C   UNL     1      -9.063  -4.359 -30.349  1.00  0.00     0.012 A 
ATOM     25  C   UNL     1      -9.789  -4.204 -27.672  1.00  0.00     0.157 A 
ATOM     26  C   UNL     1      -9.431  -5.520 -29.663  1.00  0.00     0.051 A 
ATOM     27  C   UNL     1      -9.789  -5.431 -28.327  1.00  0.00     0.157 A 
BRANCH  25  28
ATOM     28  O   UNL     1     -10.167  -4.187 -26.357  1.00  0.00    -0.504 OA
ATOM     29  H   UNL     1      -9.650  -3.503 -25.898  1.00  0.00     0.293 HD
ENDBRANCH  25  28
BRANCH  27  30
ATOM     30  O   UNL     1     -10.152  -6.563 -27.657  1.00  0.00    -0.504 OA
ATOM     31  H   UNL     1      -9.670  -7.282 -28.113  1.00  0.00     0.293 HD
ENDBRANCH  27  30
ENDBRANCH  21  22
ENDBRANCH   1  20
TORSDOF 11
ENDMDL
MODEL 10
REMARK VINA RESULT:      -7.5      5.145      6.978
REMARK SMILES O=C(/C=C/c1ccc(O)c(O)c1)O[C@@H]1C[C@](O)(C(=O)O)C[C@@H](O)[C@H]1O
REMARK SMILES IDX 2 1 1 2 13 3 14 4 21 5 22 6 16 7 24 8 15 9 23 10 17 12 18 14
REMARK SMILES IDX 19 15 20 16 25 18 3 20 4 21 5 22 12 23 6 24 10 25 7 26 8 27
REMARK SMILES IDX 11 28 9 30
REMARK H PARENT 23 11 17 13 20 17 25 19 11 29 9 31
ROOT
ATOM      1  C   UNL     1      -8.945  -1.500 -26.423  1.00  0.00     0.331 C 
ATOM      2  O   UNL     1      -7.990  -1.655 -25.675  1.00  0.00    -0.247 OA
ENDROOT
BRANCH   1   3
ATOM      3  O   UNL     1     -10.248  -1.607 -26.075  1.00  0.00    -0.456 OA
BRANCH   3   4
ATOM      4  C   UNL     1     -10.733  -2.951 -25.872  1.00  0.00     0.211 C 
ATOM      5  C   UNL     1     -12.469  -5.171 -26.825  1.00  0.00     0.082 C 
ATOM      6  C   UNL     1     -12.884  -4.299 -25.640  1.00  0.00     0.150 C 
ATOM      7  C   UNL     1     -10.945  -5.215 -26.995  1.00  0.00     0.167 C 
ATOM      8  C   UNL     1     -12.262  -2.894 -25.698  1.00  0.00     0.184 C 
ATOM      9  C   UNL     1     -10.355  -3.809 -27.085  1.00  0.00     0.095 C 
BRANCH   6  10
ATOM     10  O   UNL     1     -12.510  -4.914 -24.396  1.00  0.00    -0.390 OA
ATOM     11  H   UNL     1     -11.806  -4.373 -23.983  1.00  0.00     0.211 HD
ENDBRANCH   6  10
BRANCH   7  12
ATOM     12  O   UNL     1     -10.387  -5.900 -25.851  1.00  0.00    -0.378 OA
ATOM     13  H   UNL     1      -9.572  -6.357 -26.153  1.00  0.00     0.212 HD
ENDBRANCH   7  12
BRANCH   7  14
ATOM     14  C   UNL     1     -10.614  -6.029 -28.256  1.00  0.00     0.335 C 
ATOM     15  O   UNL     1     -11.276  -6.037 -29.280  1.00  0.00    -0.249 OA
BRANCH  14  16
ATOM     16  O   UNL     1      -9.490  -6.771 -28.091  1.00  0.00    -0.479 OA
ATOM     17  H   UNL     1      -9.122  -7.014 -28.971  1.00  0.00     0.296 HD
ENDBRANCH  14  16
ENDBRANCH   7  14
BRANCH   8  18
ATOM     18  O   UNL     1     -12.582  -2.200 -24.484  1.00  0.00    -0.387 OA
ATOM     19  H   UNL     1     -12.868  -1.303 -24.757  1.00  0.00     0.211 HD
ENDBRANCH   8  18
ENDBRANCH   3   4
ENDBRANCH   1   3
BRANCH   1  20
ATOM     20  C   UNL     1      -8.777  -1.207 -27.861  1.00  0.00     0.094 C 
ATOM     21  C   UNL     1      -9.674  -0.538 -28.603  1.00  0.00     0.016 C 
BRANCH  21  22
ATOM     22  C   UNL     1      -9.483  -0.247 -30.030  1.00  0.00    -0.021 A 
ATOM     23  C   UNL     1     -10.553  -0.258 -30.940  1.00  0.00     0.058 A 
ATOM     24  C   UNL     1      -8.202   0.108 -30.480  1.00  0.00     0.012 A 
ATOM     25  C   UNL     1     -10.321   0.060 -32.275  1.00  0.00     0.157 A 
ATOM     26  C   UNL     1      -7.978   0.422 -31.823  1.00  0.00     0.051 A 
ATOM     27  C   UNL     1      -9.042   0.393 -32.710  1.00  0.00     0.157 A 
BRANCH  25  28
ATOM     28  O   UNL     1     -11.327   0.063 -33.202  1.00  0.00    -0.504 OA
ATOM     29  H   UNL     1     -10.927   0.071 -34.088  1.00  0.00     0.293 HD
ENDBRANCH  25  28
BRANCH  27  30
ATOM     30  O   UNL     1      -8.826   0.703 -34.021  1.00  0.00    -0.504 OA
ATOM     31  H   UNL     1      -9.386   1.488 -34.183  1.00  0.00     0.293 HD
ENDBRANCH  27  30
ENDBRANCH  21  22
ENDBRANCH   1  20
TORSDOF 11
ENDMDL
