MODEL 1
REMARK VINA RESULT:      -7.0      0.000      0.000
REMARK SMILES COc1ccc(C=CC(=O)O)cc1O
REMARK SMILES IDX 7 1 8 2 6 3 3 4 13 5 4 6 12 7 5 8 2 9 1 10 14 11 9 13 10 14
REMARK SMILES IDX 11 15
REMARK H PARENT 14 12 11 16
ROOT
ATOM      1  C   UNL     1       6.026  -2.416 -20.679  1.00  0.00     0.016 C 
ATOM      2  C   UNL     1       5.494  -1.655 -21.647  1.00  0.00     0.094 C 
ENDROOT
BRANCH   1   3
ATOM      3  C   UNL     1       6.604  -1.881 -19.439  1.00  0.00    -0.021 A 
ATOM      4  C   UNL     1       7.769  -0.765 -17.121  1.00  0.00     0.160 A 
ATOM      5  C   UNL     1       6.595  -1.523 -17.053  1.00  0.00     0.158 A 
ATOM      6  C   UNL     1       8.355  -0.556 -18.367  1.00  0.00     0.051 A 
ATOM      7  C   UNL     1       6.008  -2.073 -18.189  1.00  0.00     0.058 A 
ATOM      8  C   UNL     1       7.772  -1.107 -19.518  1.00  0.00     0.012 A 
BRANCH   4   9
ATOM      9  O   UNL     1       8.225  -0.292 -15.918  1.00  0.00    -0.493 OA
ATOM     10  C   UNL     1       9.449  -0.839 -15.443  1.00  0.00     0.278 C 
ENDBRANCH   4   9
BRANCH   5  11
ATOM     11  O   UNL     1       5.986  -1.741 -15.846  1.00  0.00    -0.504 OA
ATOM     12  H   UNL     1       5.964  -0.865 -15.414  1.00  0.00     0.293 HD
ENDBRANCH   5  11
ENDBRANCH   1   3
BRANCH   2  13
ATOM     13  C   UNL     1       4.919  -2.306 -22.843  1.00  0.00     0.328 C 
ATOM     14  O   UNL     1       4.216  -3.301 -22.820  1.00  0.00    -0.247 OA
BRANCH  13  15
ATOM     15  O   UNL     1       5.260  -1.667 -23.979  1.00  0.00    -0.478 OA
ATOM     16  H   UNL     1       5.425  -0.711 -23.892  1.00  0.00     0.297 HD
ENDBRANCH  13  15
ENDBRANCH   2  13
TORSDOF 5
ENDMDL
MODEL 2
REMARK VINA RESULT:      -6.3     14.998     18.594
REMARK SMILES COc1ccc(C=CC(=O)O)cc1O
REMARK SMILES IDX 7 1 8 2 6 3 3 4 13 5 4 6 12 7 5 8 2 9 1 10 14 11 9 13 10 14
REMARK SMILES IDX 11 15
REMARK H PARENT 14 12 11 16
ROOT
ATOM      1  C   UNL     1      -8.489   0.347 -31.680  1.00  0.00     0.016 C 
ATOM      2  C   UNL     1      -9.023   0.618 -32.880  1.00  0.00     0.094 C 
ENDROOT
BRANCH   1   3
ATOM      3  C   UNL     1      -7.047   0.206 -31.436  1.00  0.00    -0.021 A 
ATOM      4  C   UNL     1      -4.295  -0.182 -30.937  1.00  0.00     0.160 A 
ATOM      5  C   UNL     1      -4.741   0.796 -31.833  1.00  0.00     0.158 A 
ATOM      6  C   UNL     1      -5.240  -0.979 -30.296  1.00  0.00     0.051 A 
ATOM      7  C   UNL     1      -6.095   0.992 -32.092  1.00  0.00     0.058 A 
ATOM      8  C   UNL     1      -6.606  -0.788 -30.550  1.00  0.00     0.012 A 
BRANCH   4   9
ATOM      9  O   UNL     1      -2.934  -0.253 -30.786  1.00  0.00    -0.493 OA
ATOM     10  C   UNL     1      -2.419   0.077 -29.502  1.00  0.00     0.278 C 
ENDBRANCH   4   9
BRANCH   5  11
ATOM     11  O   UNL     1      -3.840   1.592 -32.488  1.00  0.00    -0.504 OA
ATOM     12  H   UNL     1      -3.758   2.389 -31.929  1.00  0.00     0.293 HD
ENDBRANCH   5  11
ENDBRANCH   1   3
BRANCH   2  13
ATOM     13  C   UNL     1     -10.488   0.762 -33.003  1.00  0.00     0.328 C 
ATOM     14  O   UNL     1     -11.274  -0.167 -33.058  1.00  0.00    -0.247 OA
BRANCH  13  15
ATOM     15  O   UNL     1     -10.867   2.055 -33.045  1.00  0.00    -0.478 OA
ATOM     16  H   UNL     1     -11.763   2.242 -32.712  1.00  0.00     0.297 HD
ENDBRANCH  13  15
ENDBRANCH   2  13
TORSDOF 5
ENDMDL
MODEL 3
REMARK VINA RESULT:      -6.2     15.178     18.578
REMARK SMILES COc1ccc(C=CC(=O)O)cc1O
REMARK SMILES IDX 7 1 8 2 6 3 3 4 13 5 4 6 12 7 5 8 2 9 1 10 14 11 9 13 10 14
REMARK SMILES IDX 11 15
REMARK H PARENT 14 12 11 16
ROOT
ATOM      1  C   UNL     1      -8.375   1.765 -32.256  1.00  0.00     0.016 C 
ATOM      2  C   UNL     1      -9.132   0.667 -32.403  1.00  0.00     0.094 C 
ENDROOT
BRANCH   1   3
ATOM      3  C   UNL     1      -7.075   1.779 -31.572  1.00  0.00    -0.021 A 
ATOM      4  C   UNL     1      -4.634   1.803 -30.152  1.00  0.00     0.160 A 
ATOM      5  C   UNL     1      -4.707   1.331 -31.467  1.00  0.00     0.158 A 
ATOM      6  C   UNL     1      -5.801   2.255 -29.542  1.00  0.00     0.051 A 
ATOM      7  C   UNL     1      -5.905   1.309 -32.175  1.00  0.00     0.058 A 
ATOM      8  C   UNL     1      -7.014   2.238 -30.248  1.00  0.00     0.012 A 
BRANCH   4   9
ATOM      9  O   UNL     1      -3.385   1.762 -29.589  1.00  0.00    -0.493 OA
ATOM     10  C   UNL     1      -3.308   2.036 -28.195  1.00  0.00     0.278 C 
ENDBRANCH   4   9
BRANCH   5  11
ATOM     11  O   UNL     1      -3.581   0.870 -32.096  1.00  0.00    -0.504 OA
ATOM     12  H   UNL     1      -3.415  -0.009 -31.701  1.00  0.00     0.293 HD
ENDBRANCH   5  11
ENDBRANCH   1   3
BRANCH   2  13
ATOM     13  C   UNL     1     -10.414   0.766 -33.131  1.00  0.00     0.328 C 
ATOM     14  O   UNL     1     -10.936  -0.149 -33.745  1.00  0.00    -0.247 OA
BRANCH  13  15
ATOM     15  O   UNL     1     -10.954   1.997 -33.038  1.00  0.00    -0.478 OA
ATOM     16  H   UNL     1     -11.503   2.274 -33.792  1.00  0.00     0.297 HD
ENDBRANCH  13  15
ENDBRANCH   2  13
TORSDOF 5
ENDMDL
MODEL 4
REMARK VINA RESULT:      -6.2      2.135      3.050
REMARK SMILES COc1ccc(C=CC(=O)O)cc1O
REMARK SMILES IDX 7 1 8 2 6 3 3 4 13 5 4 6 12 7 5 8 2 9 1 10 14 11 9 13 10 14
REMARK SMILES IDX 11 15
REMARK H PARENT 14 12 11 16
ROOT
ATOM      1  C   UNL     1       7.734  -1.434 -19.066  1.00  0.00     0.016 C 
ATOM      2  C   UNL     1       6.517  -1.424 -19.631  1.00  0.00     0.094 C 
ENDROOT
BRANCH   1   3
ATOM      3  C   UNL     1       8.138  -0.543 -17.971  1.00  0.00    -0.021 A 
ATOM      4  C   UNL     1       9.026   1.132 -15.878  1.00  0.00     0.160 A 
ATOM      5  C   UNL     1       7.881   1.441 -16.621  1.00  0.00     0.158 A 
ATOM      6  C   UNL     1       9.737  -0.021 -16.199  1.00  0.00     0.051 A 
ATOM      7  C   UNL     1       7.437   0.626 -17.658  1.00  0.00     0.058 A 
ATOM      8  C   UNL     1       9.296  -0.849 -17.242  1.00  0.00     0.012 A 
BRANCH   4   9
ATOM      9  O   UNL     1       9.335   2.030 -14.889  1.00  0.00    -0.493 OA
ATOM     10  C   UNL     1      10.575   2.716 -15.019  1.00  0.00     0.278 C 
ENDBRANCH   4   9
BRANCH   5  11
ATOM     11  O   UNL     1       7.163   2.572 -16.339  1.00  0.00    -0.504 OA
ATOM     12  H   UNL     1       6.862   2.455 -15.417  1.00  0.00     0.293 HD
ENDBRANCH   5  11
ENDBRANCH   1   3
BRANCH   2  13
ATOM     13  C   UNL     1       6.215  -2.385 -20.712  1.00  0.00     0.328 C 
ATOM     14  O   UNL     1       5.563  -2.125 -21.709  1.00  0.00    -0.247 OA
BRANCH  13  15
ATOM     15  O   UNL     1       6.751  -3.598 -20.475  1.00  0.00    -0.478 OA
ATOM     16  H   UNL     1       6.559  -3.980 -19.600  1.00  0.00     0.297 HD
ENDBRANCH  13  15
ENDBRANCH   2  13
TORSDOF 5
ENDMDL
MODEL 5
REMARK VINA RESULT:      -6.0     14.972     18.430
REMARK SMILES COc1ccc(C=CC(=O)O)cc1O
REMARK SMILES IDX 7 1 8 2 6 3 3 4 13 5 4 6 12 7 5 8 2 9 1 10 14 11 9 13 10 14
REMARK SMILES IDX 11 15
REMARK H PARENT 14 12 11 16
ROOT
ATOM      1  C   UNL     1      -8.471   1.010 -31.760  1.00  0.00     0.016 C 
ATOM      2  C   UNL     1      -9.147   0.274 -32.655  1.00  0.00     0.094 C 
ENDROOT
BRANCH   1   3
ATOM      3  C   UNL     1      -7.053   0.806 -31.434  1.00  0.00    -0.021 A 
ATOM      4  C   UNL     1      -4.320   0.530 -30.778  1.00  0.00     0.160 A 
ATOM      5  C   UNL     1      -5.200  -0.555 -30.702  1.00  0.00     0.158 A 
ATOM      6  C   UNL     1      -4.821   1.767 -31.175  1.00  0.00     0.051 A 
ATOM      7  C   UNL     1      -6.550  -0.430 -31.017  1.00  0.00     0.058 A 
ATOM      8  C   UNL     1      -6.181   1.903 -31.496  1.00  0.00     0.012 A 
BRANCH   4   9
ATOM      9  O   UNL     1      -3.022   0.250 -30.439  1.00  0.00    -0.493 OA
ATOM     10  C   UNL     1      -2.593   0.688 -29.155  1.00  0.00     0.278 C 
ENDBRANCH   4   9
BRANCH   5  11
ATOM     11  O   UNL     1      -4.743  -1.784 -30.306  1.00  0.00    -0.504 OA
ATOM     12  H   UNL     1      -5.246  -2.425 -30.847  1.00  0.00     0.293 HD
ENDBRANCH   5  11
ENDBRANCH   1   3
BRANCH   2  13
ATOM     13  C   UNL     1     -10.566   0.585 -32.921  1.00  0.00     0.328 C 
ATOM     14  O   UNL     1     -11.444  -0.248 -33.067  1.00  0.00    -0.247 OA
BRANCH  13  15
ATOM     15  O   UNL     1     -10.790   1.912 -32.981  1.00  0.00    -0.478 OA
ATOM     16  H   UNL     1     -11.672   2.205 -32.690  1.00  0.00     0.297 HD
ENDBRANCH  13  15
ENDBRANCH   2  13
TORSDOF 5
ENDMDL
MODEL 6
REMARK VINA RESULT:      -5.9     15.052     18.333
REMARK SMILES COc1ccc(C=CC(=O)O)cc1O
REMARK SMILES IDX 7 1 8 2 6 3 3 4 13 5 4 6 12 7 5 8 2 9 1 10 14 11 9 13 10 14
REMARK SMILES IDX 11 15
REMARK H PARENT 14 12 11 16
ROOT
ATOM      1  C   UNL     1      -8.241   1.620 -32.247  1.00  0.00     0.016 C 
ATOM      2  C   UNL     1      -9.190   0.677 -32.156  1.00  0.00     0.094 C 
ENDROOT
BRANCH   1   3
ATOM      3  C   UNL     1      -6.999   1.613 -31.462  1.00  0.00    -0.021 A 
ATOM      4  C   UNL     1      -4.550   1.609 -30.055  1.00  0.00     0.160 A 
ATOM      5  C   UNL     1      -5.739   2.028 -29.446  1.00  0.00     0.158 A 
ATOM      6  C   UNL     1      -4.592   1.201 -31.386  1.00  0.00     0.051 A 
ATOM      7  C   UNL     1      -6.950   2.040 -30.131  1.00  0.00     0.058 A 
ATOM      8  C   UNL     1      -5.809   1.209 -32.084  1.00  0.00     0.012 A 
BRANCH   4   9
ATOM      9  O   UNL     1      -3.440   1.652 -29.252  1.00  0.00    -0.493 OA
ATOM     10  C   UNL     1      -2.599   0.506 -29.269  1.00  0.00     0.278 C 
ENDBRANCH   4   9
BRANCH   5  11
ATOM     11  O   UNL     1      -5.734   2.444 -28.142  1.00  0.00    -0.504 OA
ATOM     12  H   UNL     1      -6.307   3.236 -28.129  1.00  0.00     0.293 HD
ENDBRANCH   5  11
ENDBRANCH   1   3
BRANCH   2  13
ATOM     13  C   UNL     1     -10.389   0.775 -33.013  1.00  0.00     0.328 C 
ATOM     14  O   UNL     1     -10.867  -0.151 -33.647  1.00  0.00    -0.247 OA
BRANCH  13  15
ATOM     15  O   UNL     1     -10.908   2.018 -33.017  1.00  0.00    -0.478 OA
ATOM     16  H   UNL     1     -11.702   2.143 -33.566  1.00  0.00     0.297 HD
ENDBRANCH  13  15
ENDBRANCH   2  13
TORSDOF 5
ENDMDL
MODEL 7
REMARK VINA RESULT:      -5.9     16.218     19.054
REMARK SMILES COc1ccc(C=CC(=O)O)cc1O
REMARK SMILES IDX 7 1 8 2 6 3 3 4 13 5 4 6 12 7 5 8 2 9 1 10 14 11 9 13 10 14
REMARK SMILES IDX 11 15
REMARK H PARENT 14 12 11 16
ROOT
ATOM      1  C   UNL     1      -9.730  -3.787 -30.378  1.00  0.00     0.016 C 
ATOM      2  C   UNL     1      -9.749  -4.830 -29.534  1.00  0.00     0.094 C 
ENDROOT
BRANCH   1   3
ATOM      3  C   UNL     1      -8.611  -2.841 -30.488  1.00  0.00    -0.021 A 
ATOM      4  C   UNL     1      -6.388  -1.108 -30.657  1.00  0.00     0.160 A 
ATOM      5  C   UNL     1      -7.514  -0.929 -31.468  1.00  0.00     0.158 A 
ATOM      6  C   UNL     1      -6.375  -2.176 -29.763  1.00  0.00     0.051 A 
ATOM      7  C   UNL     1      -8.613  -1.779 -31.398  1.00  0.00     0.058 A 
ATOM      8  C   UNL     1      -7.479  -3.039 -29.685  1.00  0.00     0.012 A 
BRANCH   4   9
ATOM      9  O   UNL     1      -5.388  -0.189 -30.841  1.00  0.00    -0.493 OA
ATOM     10  C   UNL     1      -4.077  -0.593 -30.465  1.00  0.00     0.278 C 
ENDBRANCH   4   9
BRANCH   5  11
ATOM     11  O   UNL     1      -7.558   0.105 -32.365  1.00  0.00    -0.504 OA
ATOM     12  H   UNL     1      -6.777   0.654 -32.154  1.00  0.00     0.293 HD
ENDBRANCH   5  11
ENDBRANCH   1   3
BRANCH   2  13
ATOM     13  C   UNL     1     -10.920  -5.731 -29.526  1.00  0.00     0.328 C 
ATOM     14  O   UNL     1     -11.434  -6.192 -28.522  1.00  0.00    -0.247 OA
BRANCH  13  15
ATOM     15  O   UNL     1     -11.367  -5.989 -30.771  1.00  0.00    -0.478 OA
ATOM     16  H   UNL     1     -12.280  -6.321 -30.830  1.00  0.00     0.297 HD
ENDBRANCH  13  15
ENDBRANCH   2  13
TORSDOF 5
ENDMDL
MODEL 8
REMARK VINA RESULT:      -5.8     13.428     14.567
REMARK SMILES COc1ccc(C=CC(=O)O)cc1O
REMARK SMILES IDX 7 1 8 2 6 3 3 4 13 5 4 6 12 7 5 8 2 9 1 10 14 11 9 13 10 14
REMARK SMILES IDX 11 15
REMARK H PARENT 14 12 11 16
ROOT
ATOM      1  C   UNL     1      -5.542  -1.485 -25.509  1.00  0.00     0.016 C 
ATOM      2  C   UNL     1      -6.231  -0.593 -24.781  1.00  0.00     0.094 C 
ENDROOT
BRANCH   1   3
ATOM      3  C   UNL     1      -4.649  -1.125 -26.617  1.00  0.00    -0.021 A 
ATOM      4  C   UNL     1      -2.990  -0.509 -28.819  1.00  0.00     0.160 A 
ATOM      5  C   UNL     1      -3.183   0.402 -27.775  1.00  0.00     0.158 A 
ATOM      6  C   UNL     1      -3.648  -1.736 -28.761  1.00  0.00     0.051 A 
ATOM      7  C   UNL     1      -4.002   0.113 -26.688  1.00  0.00     0.058 A 
ATOM      8  C   UNL     1      -4.475  -2.037 -27.669  1.00  0.00     0.012 A 
BRANCH   4   9
ATOM      9  O   UNL     1      -2.155  -0.081 -29.818  1.00  0.00    -0.493 OA
ATOM     10  C   UNL     1      -2.651  -0.180 -31.147  1.00  0.00     0.278 C 
ENDBRANCH   4   9
BRANCH   5  11
ATOM     11  O   UNL     1      -2.560   1.622 -27.804  1.00  0.00    -0.504 OA
ATOM     12  H   UNL     1      -3.022   2.123 -28.504  1.00  0.00     0.293 HD
ENDBRANCH   5  11
ENDBRANCH   1   3
BRANCH   2  13
ATOM     13  C   UNL     1      -7.083  -1.069 -23.672  1.00  0.00     0.328 C 
ATOM     14  O   UNL     1      -7.983  -0.425 -23.163  1.00  0.00    -0.247 OA
BRANCH  13  15
ATOM     15  O   UNL     1      -6.753  -2.316 -23.281  1.00  0.00    -0.478 OA
ATOM     16  H   UNL     1      -5.999  -2.379 -22.668  1.00  0.00     0.297 HD
ENDBRANCH  13  15
ENDBRANCH   2  13
TORSDOF 5
ENDMDL
MODEL 9
REMARK VINA RESULT:      -5.6     16.757     18.920
REMARK SMILES COc1ccc(C=CC(=O)O)cc1O
REMARK SMILES IDX 7 1 8 2 6 3 3 4 13 5 4 6 12 7 5 8 2 9 1 10 14 11 9 13 10 14
REMARK SMILES IDX 11 15
REMARK H PARENT 14 12 11 16
ROOT
ATOM      1  C   UNL     1      -9.464  -4.152 -30.450  1.00  0.00     0.016 C 
ATOM      2  C   UNL     1     -10.029  -4.598 -29.318  1.00  0.00     0.094 C 
ENDROOT
BRANCH   1   3
ATOM      3  C   UNL     1      -8.475  -3.067 -30.501  1.00  0.00    -0.021 A 
ATOM      4  C   UNL     1      -6.661  -0.907 -30.635  1.00  0.00     0.160 A 
ATOM      5  C   UNL     1      -6.431  -1.999 -29.792  1.00  0.00     0.158 A 
ATOM      6  C   UNL     1      -7.819  -0.895 -31.408  1.00  0.00     0.051 A 
ATOM      7  C   UNL     1      -7.320  -3.067 -29.713  1.00  0.00     0.058 A 
ATOM      8  C   UNL     1      -8.721  -1.967 -31.336  1.00  0.00     0.012 A 
BRANCH   4   9
ATOM      9  O   UNL     1      -5.695   0.065 -30.604  1.00  0.00    -0.493 OA
ATOM     10  C   UNL     1      -5.432   0.739 -31.828  1.00  0.00     0.278 C 
ENDBRANCH   4   9
BRANCH   5  11
ATOM     11  O   UNL     1      -5.307  -2.040 -29.010  1.00  0.00    -0.504 OA
ATOM     12  H   UNL     1      -5.003  -1.112 -28.960  1.00  0.00     0.293 HD
ENDBRANCH   5  11
ENDBRANCH   1   3
BRANCH   2  13
ATOM     13  C   UNL     1     -10.996  -5.713 -29.384  1.00  0.00     0.328 C 
ATOM     14  O   UNL     1     -11.448  -6.299 -28.416  1.00  0.00    -0.247 OA
BRANCH  13  15
ATOM     15  O   UNL     1     -11.331  -6.016 -30.654  1.00  0.00    -0.478 OA
ATOM     16  H   UNL     1     -11.299  -6.961 -30.884  1.00  0.00     0.297 HD
ENDBRANCH  13  15
ENDBRANCH   2  13
TORSDOF 5
ENDMDL
MODEL 10
REMARK VINA RESULT:      -5.5     13.291     16.284
REMARK SMILES COc1ccc(C=CC(=O)O)cc1O
REMARK SMILES IDX 7 1 8 2 6 3 3 4 13 5 4 6 12 7 5 8 2 9 1 10 14 11 9 13 10 14
REMARK SMILES IDX 11 15
REMARK H PARENT 14 12 11 16
ROOT
ATOM      1  C   UNL     1      -7.310  -2.979 -28.893  1.00  0.00     0.016 C 
ATOM      2  C   UNL     1      -7.801  -3.607 -29.972  1.00  0.00     0.094 C 
ENDROOT
BRANCH   1   3
ATOM      3  C   UNL     1      -6.042  -2.237 -28.881  1.00  0.00    -0.021 A 
ATOM      4  C   UNL     1      -3.575  -0.868 -28.755  1.00  0.00     0.160 A 
ATOM      5  C   UNL     1      -4.232  -1.075 -29.973  1.00  0.00     0.158 A 
ATOM      6  C   UNL     1      -4.157  -1.366 -27.592  1.00  0.00     0.051 A 
ATOM      7  C   UNL     1      -5.445  -1.753 -30.048  1.00  0.00     0.058 A 
ATOM      8  C   UNL     1      -5.381  -2.050 -27.658  1.00  0.00     0.012 A 
BRANCH   4   9
ATOM      9  O   UNL     1      -2.391  -0.183 -28.843  1.00  0.00    -0.493 OA
ATOM     10  C   UNL     1      -2.264   0.972 -28.022  1.00  0.00     0.278 C 
ENDBRANCH   4   9
BRANCH   5  11
ATOM     11  O   UNL     1      -3.683  -0.608 -31.138  1.00  0.00    -0.504 OA
ATOM     12  H   UNL     1      -3.144   0.161 -30.870  1.00  0.00     0.293 HD
ENDBRANCH   5  11
ENDBRANCH   1   3
BRANCH   2  13
ATOM     13  C   UNL     1      -9.100  -4.303 -29.874  1.00  0.00     0.328 C 
ATOM     14  O   UNL     1      -9.929  -4.354 -30.766  1.00  0.00    -0.247 OA
BRANCH  13  15
ATOM     15  O   UNL     1      -9.270  -4.887 -28.672  1.00  0.00    -0.478 OA
ATOM     16  H   UNL     1      -8.661  -5.619 -28.469  1.00  0.00     0.297 HD
ENDBRANCH  13  15
ENDBRANCH   2  13
TORSDOF 5
ENDMDL
