MODEL 1
REMARK VINA RESULT:      -5.6      0.000      0.000
REMARK SMILES C=CC[S@@](=O)C[C@H](N)C(=O)O
REMARK SMILES IDX 6 1 4 2 5 3 3 4 2 5 1 6 7 7 9 8 10 9 11 10 8 12
REMARK H PARENT 11 11 8 13 8 14
ROOT
ATOM      1  C   UNL     1      -3.704 -10.635 -27.057  1.00  0.00     0.136 C 
ENDROOT
BRANCH   1   2
ATOM      2  S   UNL     1      -2.692  -9.144 -27.359  1.00  0.00     0.027 S 
ATOM      3  O   UNL     1      -2.998  -8.680 -28.754  1.00  0.00    -0.259 OA
BRANCH   2   4
ATOM      4  C   UNL     1      -1.074  -9.994 -27.418  1.00  0.00     0.131 C 
BRANCH   4   5
ATOM      5  C   UNL     1      -0.376  -9.857 -26.099  1.00  0.00    -0.021 C 
ATOM      6  C   UNL     1       0.440 -10.778 -25.566  1.00  0.00     0.005 C 
ENDBRANCH   4   5
ENDBRANCH   2   4
ENDBRANCH   1   2
BRANCH   1   7
ATOM      7  C   UNL     1      -5.205 -10.329 -27.076  1.00  0.00     0.174 C 
BRANCH   7   8
ATOM      8  C   UNL     1      -6.006 -11.344 -26.244  1.00  0.00     0.321 C 
ATOM      9  O   UNL     1      -6.041 -11.398 -25.027  1.00  0.00    -0.251 OA
BRANCH   8  10
ATOM     10  O   UNL     1      -6.752 -12.168 -27.026  1.00  0.00    -0.480 OA
ATOM     11  H   UNL     1      -7.466 -12.629 -26.544  1.00  0.00     0.296 HD
ENDBRANCH   8  10
ENDBRANCH   7   8
BRANCH   7  12
ATOM     12  N   UNL     1      -5.466  -8.966 -26.552  1.00  0.00    -0.318 NA
ATOM     13  H   UNL     1      -6.192  -8.527 -27.128  1.00  0.00     0.119 HD
ATOM     14  H   UNL     1      -4.652  -8.363 -26.671  1.00  0.00     0.119 HD
ENDBRANCH   7  12
ENDBRANCH   1   7
TORSDOF 7
ENDMDL
MODEL 2
REMARK VINA RESULT:      -5.6      3.945      5.476
REMARK SMILES C=CC[S@@](=O)C[C@H](N)C(=O)O
REMARK SMILES IDX 6 1 4 2 5 3 3 4 2 5 1 6 7 7 9 8 10 9 11 10 8 12
REMARK H PARENT 11 11 8 13 8 14
ROOT
ATOM      1  C   UNL     1       0.325 -10.730 -27.027  1.00  0.00     0.136 C 
ENDROOT
BRANCH   1   2
ATOM      2  S   UNL     1      -0.714  -9.245 -27.262  1.00  0.00     0.027 S 
ATOM      3  O   UNL     1      -1.142  -8.787 -25.897  1.00  0.00    -0.259 OA
BRANCH   2   4
ATOM      4  C   UNL     1      -2.144 -10.104 -28.013  1.00  0.00     0.131 C 
BRANCH   4   5
ATOM      5  C   UNL     1      -3.359  -9.230 -27.943  1.00  0.00    -0.021 C 
ATOM      6  C   UNL     1      -4.488  -9.538 -27.289  1.00  0.00     0.005 C 
ENDBRANCH   4   5
ENDBRANCH   2   4
ENDBRANCH   1   2
BRANCH   1   7
ATOM      7  C   UNL     1       0.354 -11.191 -25.566  1.00  0.00     0.174 C 
BRANCH   7   8
ATOM      8  C   UNL     1       0.788 -12.659 -25.438  1.00  0.00     0.321 C 
ATOM      9  O   UNL     1       1.334 -13.319 -26.305  1.00  0.00    -0.251 OA
BRANCH   8  10
ATOM     10  O   UNL     1       0.554 -13.153 -24.193  1.00  0.00    -0.480 OA
ATOM     11  H   UNL     1      -0.388 -13.139 -23.934  1.00  0.00     0.296 HD
ENDBRANCH   8  10
ENDBRANCH   7   8
BRANCH   7  12
ATOM     12  N   UNL     1       1.276 -10.345 -24.770  1.00  0.00    -0.318 NA
ATOM     13  H   UNL     1       2.241 -10.579 -25.028  1.00  0.00     0.119 HD
ATOM     14  H   UNL     1       1.221 -10.571 -23.777  1.00  0.00     0.119 HD
ENDBRANCH   7  12
ENDBRANCH   1   7
TORSDOF 7
ENDMDL
MODEL 3
REMARK VINA RESULT:      -5.4      2.993      5.010
REMARK SMILES C=CC[S@@](=O)C[C@H](N)C(=O)O
REMARK SMILES IDX 6 1 4 2 5 3 3 4 2 5 1 6 7 7 9 8 10 9 11 10 8 12
REMARK H PARENT 11 11 8 13 8 14
ROOT
ATOM      1  C   UNL     1      -1.940  -9.932 -26.584  1.00  0.00     0.136 C 
ENDROOT
BRANCH   1   2
ATOM      2  S   UNL     1      -3.297  -9.968 -27.808  1.00  0.00     0.027 S 
ATOM      3  O   UNL     1      -2.934  -8.999 -28.896  1.00  0.00    -0.259 OA
BRANCH   2   4
ATOM      4  C   UNL     1      -4.552  -9.151 -26.758  1.00  0.00     0.131 C 
BRANCH   4   5
ATOM      5  C   UNL     1      -5.759 -10.029 -26.625  1.00  0.00    -0.021 C 
ATOM      6  C   UNL     1      -5.806 -11.163 -25.912  1.00  0.00     0.005 C 
ENDBRANCH   4   5
ENDBRANCH   2   4
ENDBRANCH   1   2
BRANCH   1   7
ATOM      7  C   UNL     1      -0.613 -10.415 -27.178  1.00  0.00     0.174 C 
BRANCH   7   8
ATOM      8  C   UNL     1       0.267 -11.105 -26.124  1.00  0.00     0.321 C 
ATOM      9  O   UNL     1       0.765 -10.567 -25.149  1.00  0.00    -0.251 OA
BRANCH   8  10
ATOM     10  O   UNL     1       0.390 -12.439 -26.355  1.00  0.00    -0.480 OA
ATOM     11  H   UNL     1       1.293 -12.782 -26.208  1.00  0.00     0.296 HD
ENDBRANCH   8  10
ENDBRANCH   7   8
BRANCH   7  12
ATOM     12  N   UNL     1      -0.855 -11.360 -28.295  1.00  0.00    -0.318 NA
ATOM     13  H   UNL     1      -1.866 -11.502 -28.393  1.00  0.00     0.119 HD
ATOM     14  H   UNL     1      -0.492 -12.288 -28.078  1.00  0.00     0.119 HD
ENDBRANCH   7  12
ENDBRANCH   1   7
TORSDOF 7
ENDMDL
MODEL 4
REMARK VINA RESULT:      -5.3      2.030      2.586
REMARK SMILES C=CC[S@@](=O)C[C@H](N)C(=O)O
REMARK SMILES IDX 6 1 4 2 5 3 3 4 2 5 1 6 7 7 9 8 10 9 11 10 8 12
REMARK H PARENT 11 11 8 13 8 14
ROOT
ATOM      1  C   UNL     1      -1.767 -10.551 -27.386  1.00  0.00     0.136 C 
ENDROOT
BRANCH   1   2
ATOM      2  S   UNL     1      -0.924  -9.232 -26.443  1.00  0.00     0.027 S 
ATOM      3  O   UNL     1      -0.155  -8.406 -27.434  1.00  0.00    -0.259 OA
BRANCH   2   4
ATOM      4  C   UNL     1       0.283 -10.314 -25.595  1.00  0.00     0.131 C 
BRANCH   4   5
ATOM      5  C   UNL     1       0.229 -11.694 -26.177  1.00  0.00    -0.021 C 
ATOM      6  C   UNL     1       0.809 -12.775 -25.638  1.00  0.00     0.005 C 
ENDBRANCH   4   5
ENDBRANCH   2   4
ENDBRANCH   1   2
BRANCH   1   7
ATOM      7  C   UNL     1      -3.036 -10.046 -28.080  1.00  0.00     0.174 C 
BRANCH   7   8
ATOM      8  C   UNL     1      -4.257 -10.099 -27.148  1.00  0.00     0.321 C 
ATOM      9  O   UNL     1      -4.875 -11.103 -26.839  1.00  0.00    -0.251 OA
BRANCH   8  10
ATOM     10  O   UNL     1      -4.555  -8.878 -26.628  1.00  0.00    -0.480 OA
ATOM     11  H   UNL     1      -5.353  -8.874 -26.065  1.00  0.00     0.296 HD
ENDBRANCH   8  10
ENDBRANCH   7   8
BRANCH   7  12
ATOM     12  N   UNL     1      -2.852  -8.653 -28.553  1.00  0.00    -0.318 NA
ATOM     13  H   UNL     1      -2.060  -8.237 -28.051  1.00  0.00     0.119 HD
ATOM     14  H   UNL     1      -3.647  -8.067 -28.295  1.00  0.00     0.119 HD
ENDBRANCH   7  12
ENDBRANCH   1   7
TORSDOF 7
ENDMDL
MODEL 5
REMARK VINA RESULT:      -5.3     14.103     15.712
REMARK SMILES C=CC[S@@](=O)C[C@H](N)C(=O)O
REMARK SMILES IDX 6 1 4 2 5 3 3 4 2 5 1 6 7 7 9 8 10 9 11 10 8 12
REMARK H PARENT 11 11 8 13 8 14
ROOT
ATOM      1  C   UNL     1       6.471  -1.270 -19.757  1.00  0.00     0.136 C 
ENDROOT
BRANCH   1   2
ATOM      2  S   UNL     1       6.585  -3.077 -20.004  1.00  0.00     0.027 S 
ATOM      3  O   UNL     1       7.900  -3.346 -20.677  1.00  0.00    -0.259 OA
BRANCH   2   4
ATOM      4  C   UNL     1       5.289  -3.199 -21.288  1.00  0.00     0.131 C 
BRANCH   4   5
ATOM      5  C   UNL     1       5.364  -2.016 -22.204  1.00  0.00    -0.021 C 
ATOM      6  C   UNL     1       4.839  -1.967 -23.437  1.00  0.00     0.005 C 
ENDBRANCH   4   5
ENDBRANCH   2   4
ENDBRANCH   1   2
BRANCH   1   7
ATOM      7  C   UNL     1       7.387  -0.780 -18.631  1.00  0.00     0.174 C 
BRANCH   7   8
ATOM      8  C   UNL     1       6.735  -0.944 -17.250  1.00  0.00     0.321 C 
ATOM      9  O   UNL     1       6.081  -1.904 -16.880  1.00  0.00    -0.251 OA
BRANCH   8  10
ATOM     10  O   UNL     1       7.021   0.097 -16.424  1.00  0.00    -0.480 OA
ATOM     11  H   UNL     1       6.391   0.198 -15.684  1.00  0.00     0.296 HD
ENDBRANCH   8  10
ENDBRANCH   7   8
BRANCH   7  12
ATOM     12  N   UNL     1       8.673  -1.520 -18.646  1.00  0.00    -0.318 NA
ATOM     13  H   UNL     1       8.595  -2.300 -19.308  1.00  0.00     0.119 HD
ATOM     14  H   UNL     1       8.850  -1.970 -17.748  1.00  0.00     0.119 HD
ENDBRANCH   7  12
ENDBRANCH   1   7
TORSDOF 7
ENDMDL
MODEL 6
REMARK VINA RESULT:      -5.1     12.554     14.081
REMARK SMILES C=CC[S@@](=O)C[C@H](N)C(=O)O
REMARK SMILES IDX 6 1 4 2 5 3 3 4 2 5 1 6 7 7 9 8 10 9 11 10 8 12
REMARK H PARENT 11 11 8 13 8 14
ROOT
ATOM      1  C   UNL     1       5.304   0.320 -26.425  1.00  0.00     0.136 C 
ENDROOT
BRANCH   1   2
ATOM      2  S   UNL     1       4.167  -0.947 -25.759  1.00  0.00     0.027 S 
ATOM      3  O   UNL     1       2.970  -0.221 -25.215  1.00  0.00    -0.259 OA
BRANCH   2   4
ATOM      4  C   UNL     1       5.200  -1.428 -24.328  1.00  0.00     0.131 C 
BRANCH   4   5
ATOM      5  C   UNL     1       4.398  -2.264 -23.377  1.00  0.00    -0.021 C 
ATOM      6  C   UNL     1       4.852  -2.746 -22.212  1.00  0.00     0.005 C 
ENDBRANCH   4   5
ENDBRANCH   2   4
ENDBRANCH   1   2
BRANCH   1   7
ATOM      7  C   UNL     1       6.067  -0.178 -27.656  1.00  0.00     0.174 C 
BRANCH   7   8
ATOM      8  C   UNL     1       5.871   0.751 -28.865  1.00  0.00     0.321 C 
ATOM      9  O   UNL     1       5.294   0.462 -29.900  1.00  0.00    -0.251 OA
BRANCH   8  10
ATOM     10  O   UNL     1       6.364   1.997 -28.636  1.00  0.00    -0.480 OA
ATOM     11  H   UNL     1       7.073   2.260 -29.255  1.00  0.00     0.296 HD
ENDBRANCH   8  10
ENDBRANCH   7   8
BRANCH   7  12
ATOM     12  N   UNL     1       7.517  -0.285 -27.363  1.00  0.00    -0.318 NA
ATOM     13  H   UNL     1       7.971  -0.790 -28.132  1.00  0.00     0.119 HD
ATOM     14  H   UNL     1       7.686  -0.869 -26.545  1.00  0.00     0.119 HD
ENDBRANCH   7  12
ENDBRANCH   1   7
TORSDOF 7
ENDMDL
MODEL 7
REMARK VINA RESULT:      -5.0     16.188     17.905
REMARK SMILES C=CC[S@@](=O)C[C@H](N)C(=O)O
REMARK SMILES IDX 6 1 4 2 5 3 3 4 2 5 1 6 7 7 9 8 10 9 11 10 8 12
REMARK H PARENT 11 11 8 13 8 14
ROOT
ATOM      1  C   UNL     1       8.209  -0.511 -17.955  1.00  0.00     0.136 C 
ENDROOT
BRANCH   1   2
ATOM      2  S   UNL     1       6.491  -1.132 -18.033  1.00  0.00     0.027 S 
ATOM      3  O   UNL     1       6.273  -1.976 -16.811  1.00  0.00    -0.259 OA
BRANCH   2   4
ATOM      4  C   UNL     1       6.743  -2.275 -19.438  1.00  0.00     0.131 C 
BRANCH   4   5
ATOM      5  C   UNL     1       6.082  -1.729 -20.666  1.00  0.00    -0.021 C 
ATOM      6  C   UNL     1       5.543  -2.474 -21.641  1.00  0.00     0.005 C 
ENDBRANCH   4   5
ENDBRANCH   2   4
ENDBRANCH   1   2
BRANCH   1   7
ATOM      7  C   UNL     1       8.544   0.093 -16.587  1.00  0.00     0.174 C 
BRANCH   7   8
ATOM      8  C   UNL     1       9.490  -0.810 -15.780  1.00  0.00     0.321 C 
ATOM      9  O   UNL     1      10.626  -0.527 -15.439  1.00  0.00    -0.251 OA
BRANCH   8  10
ATOM     10  O   UNL     1       8.894  -1.975 -15.412  1.00  0.00    -0.480 OA
ATOM     11  H   UNL     1       9.032  -2.208 -14.473  1.00  0.00     0.296 HD
ENDBRANCH   8  10
ENDBRANCH   7   8
BRANCH   7  12
ATOM     12  N   UNL     1       9.172   1.427 -16.746  1.00  0.00    -0.318 NA
ATOM     13  H   UNL     1       8.475   2.074 -17.132  1.00  0.00     0.119 HD
ATOM     14  H   UNL     1       9.911   1.406 -17.448  1.00  0.00     0.119 HD
ENDBRANCH   7  12
ENDBRANCH   1   7
TORSDOF 7
ENDMDL
MODEL 8
REMARK VINA RESULT:      -4.8     15.218     16.956
REMARK SMILES C=CC[S@@](=O)C[C@H](N)C(=O)O
REMARK SMILES IDX 6 1 4 2 5 3 3 4 2 5 1 6 7 7 9 8 10 9 11 10 8 12
REMARK H PARENT 11 11 8 13 8 14
ROOT
ATOM      1  C   UNL     1       8.359  -0.937 -18.778  1.00  0.00     0.136 C 
ENDROOT
BRANCH   1   2
ATOM      2  S   UNL     1       6.634  -1.514 -18.947  1.00  0.00     0.027 S 
ATOM      3  O   UNL     1       6.373  -2.459 -17.809  1.00  0.00    -0.259 OA
BRANCH   2   4
ATOM      4  C   UNL     1       6.896  -2.534 -20.442  1.00  0.00     0.131 C 
BRANCH   4   5
ATOM      5  C   UNL     1       5.588  -2.783 -21.128  1.00  0.00    -0.021 C 
ATOM      6  C   UNL     1       5.221  -2.242 -22.298  1.00  0.00     0.005 C 
ENDBRANCH   4   5
ENDBRANCH   2   4
ENDBRANCH   1   2
BRANCH   1   7
ATOM      7  C   UNL     1       8.627  -0.307 -17.407  1.00  0.00     0.174 C 
BRANCH   7   8
ATOM      8  C   UNL     1       7.418   0.495 -16.900  1.00  0.00     0.321 C 
ATOM      9  O   UNL     1       7.128   1.632 -17.231  1.00  0.00    -0.251 OA
BRANCH   8  10
ATOM     10  O   UNL     1       6.635  -0.236 -16.063  1.00  0.00    -0.480 OA
ATOM     11  H   UNL     1       5.680  -0.048 -16.152  1.00  0.00     0.296 HD
ENDBRANCH   8  10
ENDBRANCH   7   8
BRANCH   7  12
ATOM     12  N   UNL     1       8.962  -1.352 -16.409  1.00  0.00    -0.318 NA
ATOM     13  H   UNL     1       8.110  -1.876 -16.183  1.00  0.00     0.119 HD
ATOM     14  H   UNL     1       9.246  -0.938 -15.522  1.00  0.00     0.119 HD
ENDBRANCH   7  12
ENDBRANCH   1   7
TORSDOF 7
ENDMDL
MODEL 9
REMARK VINA RESULT:      -4.8     16.448     18.254
REMARK SMILES C=CC[S@@](=O)C[C@H](N)C(=O)O
REMARK SMILES IDX 6 1 4 2 5 3 3 4 2 5 1 6 7 7 9 8 10 9 11 10 8 12
REMARK H PARENT 11 11 8 13 8 14
ROOT
ATOM      1  C   UNL     1       7.462   0.164 -16.857  1.00  0.00     0.136 C 
ENDROOT
BRANCH   1   2
ATOM      2  S   UNL     1       6.208  -0.876 -17.685  1.00  0.00     0.027 S 
ATOM      3  O   UNL     1       6.055  -2.121 -16.860  1.00  0.00    -0.259 OA
BRANCH   2   4
ATOM      4  C   UNL     1       7.224  -1.317 -19.140  1.00  0.00     0.131 C 
BRANCH   4   5
ATOM      5  C   UNL     1       6.339  -1.754 -20.268  1.00  0.00    -0.021 C 
ATOM      6  C   UNL     1       6.122  -3.029 -20.620  1.00  0.00     0.005 C 
ENDBRANCH   4   5
ENDBRANCH   2   4
ENDBRANCH   1   2
BRANCH   1   7
ATOM      7  C   UNL     1       8.790  -0.575 -16.664  1.00  0.00     0.174 C 
BRANCH   7   8
ATOM      8  C   UNL     1       9.881   0.348 -16.098  1.00  0.00     0.321 C 
ATOM      9  O   UNL     1      10.817  -0.002 -15.398  1.00  0.00    -0.251 OA
BRANCH   8  10
ATOM     10  O   UNL     1       9.734   1.631 -16.520  1.00  0.00    -0.480 OA
ATOM     11  H   UNL     1       8.877   2.031 -16.275  1.00  0.00     0.296 HD
ENDBRANCH   8  10
ENDBRANCH   7   8
BRANCH   7  12
ATOM     12  N   UNL     1       8.616  -1.730 -15.750  1.00  0.00    -0.318 NA
ATOM     13  H   UNL     1       7.621  -1.978 -15.720  1.00  0.00     0.119 HD
ATOM     14  H   UNL     1       8.840  -1.477 -14.788  1.00  0.00     0.119 HD
ENDBRANCH   7  12
ENDBRANCH   1   7
TORSDOF 7
ENDMDL
MODEL 10
REMARK VINA RESULT:      -4.6     11.312     12.596
REMARK SMILES C=CC[S@@](=O)C[C@H](N)C(=O)O
REMARK SMILES IDX 6 1 4 2 5 3 3 4 2 5 1 6 7 7 9 8 10 9 11 10 8 12
REMARK H PARENT 11 11 8 13 8 14
ROOT
ATOM      1  C   UNL     1      -8.611  -0.806 -32.212  1.00  0.00     0.136 C 
ENDROOT
BRANCH   1   2
ATOM      2  S   UNL     1      -7.414  -0.451 -30.877  1.00  0.00     0.027 S 
ATOM      3  O   UNL     1      -6.064  -0.320 -31.520  1.00  0.00    -0.259 OA
BRANCH   2   4
ATOM      4  C   UNL     1      -7.477  -2.101 -30.091  1.00  0.00     0.131 C 
BRANCH   4   5
ATOM      5  C   UNL     1      -8.616  -2.893 -30.656  1.00  0.00    -0.021 C 
ATOM      6  C   UNL     1      -8.852  -4.187 -30.395  1.00  0.00     0.005 C 
ENDBRANCH   4   5
ENDBRANCH   2   4
ENDBRANCH   1   2
BRANCH   1   7
ATOM      7  C   UNL     1      -9.008   0.457 -32.983  1.00  0.00     0.174 C 
BRANCH   7   8
ATOM      8  C   UNL     1     -10.533   0.651 -33.017  1.00  0.00     0.321 C 
ATOM      9  O   UNL     1     -11.365  -0.241 -32.995  1.00  0.00    -0.251 OA
BRANCH   8  10
ATOM     10  O   UNL     1     -10.880   1.965 -33.009  1.00  0.00    -0.480 OA
ATOM     11  H   UNL     1     -11.714   2.149 -32.534  1.00  0.00     0.296 HD
ENDBRANCH   8  10
ENDBRANCH   7   8
BRANCH   7  12
ATOM     12  N   UNL     1      -8.385   1.658 -32.375  1.00  0.00    -0.318 NA
ATOM     13  H   UNL     1      -7.740   2.073 -33.056  1.00  0.00     0.119 HD
ATOM     14  H   UNL     1      -7.789   1.405 -31.587  1.00  0.00     0.119 HD
ENDBRANCH   7  12
ENDBRANCH   1   7
TORSDOF 7
ENDMDL
