MODEL 1
REMARK VINA RESULT:      -6.9      0.000      0.000
REMARK SMILES O=C(O)/C=C/c1ccc(O)c(O)c1
REMARK SMILES IDX 5 1 4 2 6 3 7 4 8 5 9 6 13 7 11 8 10 9 12 11 2 13 1 14 3 15
REMARK H PARENT 10 10 12 12 3 16
ROOT
ATOM      1  C   UNL     1       6.060  -2.395 -20.586  1.00  0.00     0.016 C 
ATOM      2  C   UNL     1       5.504  -1.646 -21.552  1.00  0.00     0.094 C 
ENDROOT
BRANCH   1   3
ATOM      3  C   UNL     1       6.619  -1.852 -19.339  1.00  0.00    -0.021 A 
ATOM      4  C   UNL     1       7.808  -1.104 -19.404  1.00  0.00     0.012 A 
ATOM      5  C   UNL     1       8.372  -0.545 -18.253  1.00  0.00     0.051 A 
ATOM      6  C   UNL     1       7.736  -0.725 -17.033  1.00  0.00     0.157 A 
ATOM      7  C   UNL     1       5.983  -2.008 -18.101  1.00  0.00     0.058 A 
ATOM      8  C   UNL     1       6.550  -1.450 -16.962  1.00  0.00     0.157 A 
BRANCH   6   9
ATOM      9  O   UNL     1       8.234  -0.205 -15.871  1.00  0.00    -0.504 OA
ATOM     10  H   UNL     1       7.793  -0.651 -15.126  1.00  0.00     0.293 HD
ENDBRANCH   6   9
BRANCH   8  11
ATOM     11  O   UNL     1       5.925  -1.617 -15.759  1.00  0.00    -0.504 OA
ATOM     12  H   UNL     1       5.580  -2.532 -15.788  1.00  0.00     0.293 HD
ENDBRANCH   8  11
ENDBRANCH   1   3
BRANCH   2  13
ATOM     13  C   UNL     1       4.956  -2.310 -22.753  1.00  0.00     0.328 C 
ATOM     14  O   UNL     1       4.273  -3.318 -22.736  1.00  0.00    -0.247 OA
BRANCH  13  15
ATOM     15  O   UNL     1       5.300  -1.668 -23.887  1.00  0.00    -0.478 OA
ATOM     16  H   UNL     1       5.760  -2.209 -24.553  1.00  0.00     0.297 HD
ENDBRANCH  13  15
ENDBRANCH   2  13
TORSDOF 5
ENDMDL
MODEL 2
REMARK VINA RESULT:      -6.6      0.749      1.797
REMARK SMILES O=C(O)/C=C/c1ccc(O)c(O)c1
REMARK SMILES IDX 5 1 4 2 6 3 7 4 8 5 9 6 13 7 11 8 10 9 12 11 2 13 1 14 3 15
REMARK H PARENT 10 10 12 12 3 16
ROOT
ATOM      1  C   UNL     1       6.044  -2.319 -20.501  1.00  0.00     0.016 C 
ATOM      2  C   UNL     1       5.425  -1.615 -21.462  1.00  0.00     0.094 C 
ENDROOT
BRANCH   1   3
ATOM      3  C   UNL     1       6.519  -1.747 -19.233  1.00  0.00    -0.021 A 
ATOM      4  C   UNL     1       6.076  -2.321 -18.028  1.00  0.00     0.012 A 
ATOM      5  C   UNL     1       6.512  -1.831 -16.792  1.00  0.00     0.051 A 
ATOM      6  C   UNL     1       7.405  -0.770 -16.764  1.00  0.00     0.157 A 
ATOM      7  C   UNL     1       7.434  -0.687 -19.183  1.00  0.00     0.058 A 
ATOM      8  C   UNL     1       7.862  -0.206 -17.952  1.00  0.00     0.157 A 
BRANCH   6   9
ATOM      9  O   UNL     1       7.872  -0.245 -15.591  1.00  0.00    -0.504 OA
ATOM     10  H   UNL     1       7.133  -0.213 -14.958  1.00  0.00     0.293 HD
ENDBRANCH   6   9
BRANCH   8  11
ATOM     11  O   UNL     1       8.747   0.833 -17.917  1.00  0.00    -0.504 OA
ATOM     12  H   UNL     1       9.282   0.727 -18.729  1.00  0.00     0.293 HD
ENDBRANCH   8  11
ENDBRANCH   1   3
BRANCH   2  13
ATOM     13  C   UNL     1       4.974  -2.306 -22.686  1.00  0.00     0.328 C 
ATOM     14  O   UNL     1       4.304  -3.324 -22.700  1.00  0.00    -0.247 OA
BRANCH  13  15
ATOM     15  O   UNL     1       5.389  -1.680 -23.804  1.00  0.00    -0.478 OA
ATOM     16  H   UNL     1       5.156  -2.117 -24.643  1.00  0.00     0.297 HD
ENDBRANCH  13  15
ENDBRANCH   2  13
TORSDOF 5
ENDMDL
MODEL 3
REMARK VINA RESULT:      -6.4     15.866     18.716
REMARK SMILES O=C(O)/C=C/c1ccc(O)c(O)c1
REMARK SMILES IDX 5 1 4 2 6 3 7 4 8 5 9 6 13 7 11 8 10 9 12 11 2 13 1 14 3 15
REMARK H PARENT 10 10 12 12 3 16
ROOT
ATOM      1  C   UNL     1      -8.556   1.681 -31.901  1.00  0.00     0.016 C 
ATOM      2  C   UNL     1      -8.910   0.815 -32.864  1.00  0.00     0.094 C 
ENDROOT
BRANCH   1   3
ATOM      3  C   UNL     1      -7.189   1.820 -31.377  1.00  0.00    -0.021 A 
ATOM      4  C   UNL     1      -7.016   2.325 -30.077  1.00  0.00     0.012 A 
ATOM      5  C   UNL     1      -5.740   2.458 -29.518  1.00  0.00     0.051 A 
ATOM      6  C   UNL     1      -4.634   2.071 -30.261  1.00  0.00     0.157 A 
ATOM      7  C   UNL     1      -6.061   1.418 -32.105  1.00  0.00     0.058 A 
ATOM      8  C   UNL     1      -4.798   1.554 -31.544  1.00  0.00     0.157 A 
BRANCH   6   9
ATOM      9  O   UNL     1      -3.360   2.173 -29.775  1.00  0.00    -0.504 OA
ATOM     10  H   UNL     1      -3.003   3.039 -30.040  1.00  0.00     0.293 HD
ENDBRANCH   6   9
BRANCH   8  11
ATOM     11  O   UNL     1      -3.705   1.168 -32.267  1.00  0.00    -0.504 OA
ATOM     12  H   UNL     1      -2.945   1.353 -31.680  1.00  0.00     0.293 HD
ENDBRANCH   8  11
ENDBRANCH   1   3
BRANCH   2  13
ATOM     13  C   UNL     1     -10.313   0.783 -33.324  1.00  0.00     0.328 C 
ATOM     14  O   UNL     1     -10.833  -0.158 -33.897  1.00  0.00    -0.247 OA
BRANCH  13  15
ATOM     15  O   UNL     1     -10.967   1.926 -33.037  1.00  0.00    -0.478 OA
ATOM     16  H   UNL     1     -11.281   2.011 -32.119  1.00  0.00     0.297 HD
ENDBRANCH  13  15
ENDBRANCH   2  13
TORSDOF 5
ENDMDL
MODEL 4
REMARK VINA RESULT:      -6.2     16.009     19.706
REMARK SMILES O=C(O)/C=C/c1ccc(O)c(O)c1
REMARK SMILES IDX 5 1 4 2 6 3 7 4 8 5 9 6 13 7 11 8 10 9 12 11 2 13 1 14 3 15
REMARK H PARENT 10 10 12 12 3 16
ROOT
ATOM      1  C   UNL     1      -6.317   1.035 -31.787  1.00  0.00     0.016 C 
ATOM      2  C   UNL     1      -5.421   0.216 -31.214  1.00  0.00     0.094 C 
ENDROOT
BRANCH   1   3
ATOM      3  C   UNL     1      -7.706   0.658 -32.087  1.00  0.00    -0.021 A 
ATOM      4  C   UNL     1      -8.084  -0.688 -31.944  1.00  0.00     0.012 A 
ATOM      5  C   UNL     1      -9.398  -1.100 -32.194  1.00  0.00     0.051 A 
ATOM      6  C   UNL     1     -10.340  -0.156 -32.577  1.00  0.00     0.157 A 
ATOM      7  C   UNL     1      -8.676   1.599 -32.458  1.00  0.00     0.058 A 
ATOM      8  C   UNL     1      -9.978   1.182 -32.705  1.00  0.00     0.157 A 
BRANCH   6   9
ATOM      9  O   UNL     1     -11.640  -0.490 -32.835  1.00  0.00    -0.504 OA
ATOM     10  H   UNL     1     -12.179   0.317 -32.769  1.00  0.00     0.293 HD
ENDBRANCH   6   9
BRANCH   8  11
ATOM     11  O   UNL     1     -10.912   2.108 -33.075  1.00  0.00    -0.504 OA
ATOM     12  H   UNL     1     -11.568   2.097 -32.349  1.00  0.00     0.293 HD
ENDBRANCH   8  11
ENDBRANCH   1   3
BRANCH   2  13
ATOM     13  C   UNL     1      -4.058   0.716 -30.942  1.00  0.00     0.328 C 
ATOM     14  O   UNL     1      -3.690   1.180 -29.878  1.00  0.00    -0.247 OA
BRANCH  13  15
ATOM     15  O   UNL     1      -3.252   0.599 -32.016  1.00  0.00    -0.478 OA
ATOM     16  H   UNL     1      -2.781   1.411 -32.278  1.00  0.00     0.297 HD
ENDBRANCH  13  15
ENDBRANCH   2  13
TORSDOF 5
ENDMDL
MODEL 5
REMARK VINA RESULT:      -6.2     15.757     18.552
REMARK SMILES O=C(O)/C=C/c1ccc(O)c(O)c1
REMARK SMILES IDX 5 1 4 2 6 3 7 4 8 5 9 6 13 7 11 8 10 9 12 11 2 13 1 14 3 15
REMARK H PARENT 10 10 12 12 3 16
ROOT
ATOM      1  C   UNL     1      -8.579   1.298 -31.629  1.00  0.00     0.016 C 
ATOM      2  C   UNL     1      -9.088   0.704 -32.720  1.00  0.00     0.094 C 
ENDROOT
BRANCH   1   3
ATOM      3  C   UNL     1      -7.156   1.272 -31.263  1.00  0.00    -0.021 A 
ATOM      4  C   UNL     1      -6.564   2.451 -30.775  1.00  0.00     0.012 A 
ATOM      5  C   UNL     1      -5.219   2.478 -30.391  1.00  0.00     0.051 A 
ATOM      6  C   UNL     1      -4.467   1.316 -30.484  1.00  0.00     0.157 A 
ATOM      7  C   UNL     1      -6.384   0.105 -31.332  1.00  0.00     0.058 A 
ATOM      8  C   UNL     1      -5.049   0.140 -30.950  1.00  0.00     0.157 A 
BRANCH   6   9
ATOM      9  O   UNL     1      -3.148   1.274 -30.124  1.00  0.00    -0.504 OA
ATOM     10  H   UNL     1      -2.626   1.671 -30.842  1.00  0.00     0.293 HD
ENDBRANCH   6   9
BRANCH   8  11
ATOM     11  O   UNL     1      -4.304  -1.002 -31.031  1.00  0.00    -0.504 OA
ATOM     12  H   UNL     1      -3.491  -0.731 -31.503  1.00  0.00     0.293 HD
ENDBRANCH   8  11
ENDBRANCH   1   3
BRANCH   2  13
ATOM     13  C   UNL     1     -10.535   0.819 -32.994  1.00  0.00     0.328 C 
ATOM     14  O   UNL     1     -11.293  -0.126 -33.122  1.00  0.00    -0.247 OA
BRANCH  13  15
ATOM     15  O   UNL     1     -10.932   2.103 -33.089  1.00  0.00    -0.478 OA
ATOM     16  H   UNL     1     -11.872   2.268 -32.894  1.00  0.00     0.297 HD
ENDBRANCH  13  15
ENDBRANCH   2  13
TORSDOF 5
ENDMDL
MODEL 6
REMARK VINA RESULT:      -6.1      2.008      2.932
REMARK SMILES O=C(O)/C=C/c1ccc(O)c(O)c1
REMARK SMILES IDX 5 1 4 2 6 3 7 4 8 5 9 6 13 7 11 8 10 9 12 11 2 13 1 14 3 15
REMARK H PARENT 10 10 12 12 3 16
ROOT
ATOM      1  C   UNL     1       7.774  -1.284 -19.142  1.00  0.00     0.016 C 
ATOM      2  C   UNL     1       6.511  -1.597 -19.475  1.00  0.00     0.094 C 
ENDROOT
BRANCH   1   3
ATOM      3  C   UNL     1       8.144  -0.504 -17.952  1.00  0.00    -0.021 A 
ATOM      4  C   UNL     1       9.181  -0.981 -17.131  1.00  0.00     0.012 A 
ATOM      5  C   UNL     1       9.591  -0.269 -15.998  1.00  0.00     0.051 A 
ATOM      6  C   UNL     1       8.967   0.933 -15.695  1.00  0.00     0.157 A 
ATOM      7  C   UNL     1       7.540   0.720 -17.638  1.00  0.00     0.058 A 
ATOM      8  C   UNL     1       7.952   1.421 -16.512  1.00  0.00     0.157 A 
BRANCH   6   9
ATOM      9  O   UNL     1       9.320   1.678 -14.604  1.00  0.00    -0.504 OA
ATOM     10  H   UNL     1       9.212   1.125 -13.811  1.00  0.00     0.293 HD
ENDBRANCH   6   9
BRANCH   8  11
ATOM     11  O   UNL     1       7.348   2.609 -16.211  1.00  0.00    -0.504 OA
ATOM     12  H   UNL     1       7.384   3.119 -17.045  1.00  0.00     0.293 HD
ENDBRANCH   8  11
ENDBRANCH   1   3
BRANCH   2  13
ATOM     13  C   UNL     1       6.265  -2.406 -20.686  1.00  0.00     0.328 C 
ATOM     14  O   UNL     1       5.593  -2.045 -21.635  1.00  0.00    -0.247 OA
BRANCH  13  15
ATOM     15  O   UNL     1       6.874  -3.607 -20.625  1.00  0.00    -0.478 OA
ATOM     16  H   UNL     1       6.499  -4.298 -21.200  1.00  0.00     0.297 HD
ENDBRANCH  13  15
ENDBRANCH   2  13
TORSDOF 5
ENDMDL
MODEL 7
REMARK VINA RESULT:      -6.1     15.864     18.539
REMARK SMILES O=C(O)/C=C/c1ccc(O)c(O)c1
REMARK SMILES IDX 5 1 4 2 6 3 7 4 8 5 9 6 13 7 11 8 10 9 12 11 2 13 1 14 3 15
REMARK H PARENT 10 10 12 12 3 16
ROOT
ATOM      1  C   UNL     1      -8.610   1.688 -31.797  1.00  0.00     0.016 C 
ATOM      2  C   UNL     1      -8.941   0.832 -32.777  1.00  0.00     0.094 C 
ENDROOT
BRANCH   1   3
ATOM      3  C   UNL     1      -7.261   1.808 -31.227  1.00  0.00    -0.021 A 
ATOM      4  C   UNL     1      -6.162   1.413 -32.009  1.00  0.00     0.012 A 
ATOM      5  C   UNL     1      -4.854   1.526 -31.526  1.00  0.00     0.051 A 
ATOM      6  C   UNL     1      -4.645   2.049 -30.258  1.00  0.00     0.157 A 
ATOM      7  C   UNL     1      -7.029   2.350 -29.956  1.00  0.00     0.058 A 
ATOM      8  C   UNL     1      -5.727   2.459 -29.483  1.00  0.00     0.157 A 
BRANCH   6   9
ATOM      9  O   UNL     1      -3.393   2.188 -29.726  1.00  0.00    -0.504 OA
ATOM     10  H   UNL     1      -3.046   3.057 -29.993  1.00  0.00     0.293 HD
ENDBRANCH   6   9
BRANCH   8  11
ATOM     11  O   UNL     1      -5.514   2.980 -28.238  1.00  0.00    -0.504 OA
ATOM     12  H   UNL     1      -6.244   3.619 -28.112  1.00  0.00     0.293 HD
ENDBRANCH   8  11
ENDBRANCH   1   3
BRANCH   2  13
ATOM     13  C   UNL     1     -10.328   0.818 -33.285  1.00  0.00     0.328 C 
ATOM     14  O   UNL     1     -10.853  -0.131 -33.840  1.00  0.00    -0.247 OA
BRANCH  13  15
ATOM     15  O   UNL     1     -10.960   1.987 -33.064  1.00  0.00    -0.478 OA
ATOM     16  H   UNL     1     -11.933   1.947 -33.074  1.00  0.00     0.297 HD
ENDBRANCH  13  15
ENDBRANCH   2  13
TORSDOF 5
ENDMDL
MODEL 8
REMARK VINA RESULT:      -5.9     13.017     14.204
REMARK SMILES O=C(O)/C=C/c1ccc(O)c(O)c1
REMARK SMILES IDX 5 1 4 2 6 3 7 4 8 5 9 6 13 7 11 8 10 9 12 11 2 13 1 14 3 15
REMARK H PARENT 10 10 12 12 3 16
ROOT
ATOM      1  C   UNL     1      -4.407  -0.211 -26.098  1.00  0.00     0.016 C 
ATOM      2  C   UNL     1      -5.493  -0.961 -25.853  1.00  0.00     0.094 C 
ENDROOT
BRANCH   1   3
ATOM      3  C   UNL     1      -3.723  -0.147 -27.397  1.00  0.00    -0.021 A 
ATOM      4  C   UNL     1      -2.696   0.797 -27.571  1.00  0.00     0.012 A 
ATOM      5  C   UNL     1      -1.995   0.887 -28.779  1.00  0.00     0.051 A 
ATOM      6  C   UNL     1      -2.318   0.020 -29.813  1.00  0.00     0.157 A 
ATOM      7  C   UNL     1      -4.022  -1.026 -28.447  1.00  0.00     0.058 A 
ATOM      8  C   UNL     1      -3.322  -0.929 -29.644  1.00  0.00     0.157 A 
BRANCH   6   9
ATOM      9  O   UNL     1      -1.672   0.054 -31.018  1.00  0.00    -0.504 OA
ATOM     10  H   UNL     1      -1.982  -0.700 -31.549  1.00  0.00     0.293 HD
ENDBRANCH   6   9
BRANCH   8  11
ATOM     11  O   UNL     1      -3.629  -1.785 -30.663  1.00  0.00    -0.504 OA
ATOM     12  H   UNL     1      -4.599  -1.900 -30.602  1.00  0.00     0.293 HD
ENDBRANCH   8  11
ENDBRANCH   1   3
BRANCH   2  13
ATOM     13  C   UNL     1      -6.107  -0.926 -24.510  1.00  0.00     0.328 C 
ATOM     14  O   UNL     1      -6.365   0.092 -23.893  1.00  0.00    -0.247 OA
BRANCH  13  15
ATOM     15  O   UNL     1      -6.356  -2.161 -24.034  1.00  0.00    -0.478 OA
ATOM     16  H   UNL     1      -5.614  -2.791 -24.091  1.00  0.00     0.297 HD
ENDBRANCH  13  15
ENDBRANCH   2  13
TORSDOF 5
ENDMDL
MODEL 9
REMARK VINA RESULT:      -5.8     16.072     19.670
REMARK SMILES O=C(O)/C=C/c1ccc(O)c(O)c1
REMARK SMILES IDX 5 1 4 2 6 3 7 4 8 5 9 6 13 7 11 8 10 9 12 11 2 13 1 14 3 15
REMARK H PARENT 10 10 12 12 3 16
ROOT
ATOM      1  C   UNL     1      -6.275   2.005 -31.394  1.00  0.00     0.016 C 
ATOM      2  C   UNL     1      -6.209   2.717 -30.258  1.00  0.00     0.094 C 
ENDROOT
BRANCH   1   3
ATOM      3  C   UNL     1      -7.522   1.480 -31.968  1.00  0.00    -0.021 A 
ATOM      4  C   UNL     1      -7.532   1.101 -33.322  1.00  0.00     0.012 A 
ATOM      5  C   UNL     1      -8.684   0.574 -33.916  1.00  0.00     0.051 A 
ATOM      6  C   UNL     1      -9.828   0.416 -33.147  1.00  0.00     0.157 A 
ATOM      7  C   UNL     1      -8.682   1.296 -31.204  1.00  0.00     0.058 A 
ATOM      8  C   UNL     1      -9.822   0.773 -31.801  1.00  0.00     0.157 A 
BRANCH   6   9
ATOM      9  O   UNL     1     -10.987  -0.094 -33.664  1.00  0.00    -0.504 OA
ATOM     10  H   UNL     1     -11.409  -0.641 -32.979  1.00  0.00     0.293 HD
ENDBRANCH   6   9
BRANCH   8  11
ATOM     11  O   UNL     1     -10.949   0.607 -31.047  1.00  0.00    -0.504 OA
ATOM     12  H   UNL     1     -11.283   1.515 -30.903  1.00  0.00     0.293 HD
ENDBRANCH   8  11
ENDBRANCH   1   3
BRANCH   2  13
ATOM     13  C   UNL     1      -4.898   3.211 -29.791  1.00  0.00     0.328 C 
ATOM     14  O   UNL     1      -4.494   3.127 -28.645  1.00  0.00    -0.247 OA
BRANCH  13  15
ATOM     15  O   UNL     1      -4.185   3.773 -30.787  1.00  0.00    -0.478 OA
ATOM     16  H   UNL     1      -4.655   4.444 -31.314  1.00  0.00     0.297 HD
ENDBRANCH  13  15
ENDBRANCH   2  13
TORSDOF 5
ENDMDL
MODEL 10
REMARK VINA RESULT:      -5.8     13.455     14.848
REMARK SMILES O=C(O)/C=C/c1ccc(O)c(O)c1
REMARK SMILES IDX 5 1 4 2 6 3 7 4 8 5 9 6 13 7 11 8 10 9 12 11 2 13 1 14 3 15
REMARK H PARENT 10 10 12 12 3 16
ROOT
ATOM      1  C   UNL     1      -4.548  -0.432 -26.485  1.00  0.00     0.016 C 
ATOM      2  C   UNL     1      -5.582  -1.121 -25.978  1.00  0.00     0.094 C 
ENDROOT
BRANCH   1   3
ATOM      3  C   UNL     1      -4.115  -0.506 -27.888  1.00  0.00    -0.021 A 
ATOM      4  C   UNL     1      -3.747  -1.757 -28.413  1.00  0.00     0.012 A 
ATOM      5  C   UNL     1      -3.347  -1.891 -29.747  1.00  0.00     0.051 A 
ATOM      6  C   UNL     1      -3.327  -0.767 -30.561  1.00  0.00     0.157 A 
ATOM      7  C   UNL     1      -4.105   0.613 -28.731  1.00  0.00     0.058 A 
ATOM      8  C   UNL     1      -3.706   0.472 -30.054  1.00  0.00     0.157 A 
BRANCH   6   9
ATOM      9  O   UNL     1      -2.949  -0.828 -31.874  1.00  0.00    -0.504 OA
ATOM     10  H   UNL     1      -3.078  -1.742 -32.184  1.00  0.00     0.293 HD
ENDBRANCH   6   9
BRANCH   8  11
ATOM     11  O   UNL     1      -3.692   1.573 -30.864  1.00  0.00    -0.504 OA
ATOM     12  H   UNL     1      -4.329   2.189 -30.450  1.00  0.00     0.293 HD
ENDBRANCH   8  11
ENDBRANCH   1   3
BRANCH   2  13
ATOM     13  C   UNL     1      -5.937  -0.947 -24.555  1.00  0.00     0.328 C 
ATOM     14  O   UNL     1      -5.838   0.099 -23.939  1.00  0.00    -0.247 OA
BRANCH  13  15
ATOM     15  O   UNL     1      -6.390  -2.090 -24.003  1.00  0.00    -0.478 OA
ATOM     16  H   UNL     1      -7.134  -2.515 -24.467  1.00  0.00     0.297 HD
ENDBRANCH  13  15
ENDBRANCH   2  13
TORSDOF 5
ENDMDL
