MODEL 1
REMARK VINA RESULT:      -5.8      0.000      0.000
REMARK SMILES C=CC[S@@](=O)C[C@H](O)C(N)=O
REMARK SMILES IDX 6 1 4 2 5 3 3 4 2 5 1 6 7 7 9 8 11 9 10 10 8 13
REMARK H PARENT 10 11 10 12 8 14
ROOT
ATOM      1  C   UNL     1      -1.352  -9.372 -26.327  1.00  0.00     0.147 C 
ENDROOT
BRANCH   1   2
ATOM      2  S   UNL     1      -2.097  -9.654 -27.965  1.00  0.00     0.028 S 
ATOM      3  O   UNL     1      -2.634  -8.331 -28.433  1.00  0.00    -0.259 OA
BRANCH   2   4
ATOM      4  C   UNL     1      -3.524 -10.638 -27.385  1.00  0.00     0.131 C 
BRANCH   4   5
ATOM      5  C   UNL     1      -4.700  -9.742 -27.141  1.00  0.00    -0.021 C 
ATOM      6  C   UNL     1      -5.723 -10.030 -26.325  1.00  0.00     0.005 C 
ENDBRANCH   4   5
ENDBRANCH   2   4
ENDBRANCH   1   2
BRANCH   1   7
ATOM      7  C   UNL     1       0.147  -9.648 -26.301  1.00  0.00     0.215 C 
BRANCH   7   8
ATOM      8  C   UNL     1       0.483 -11.089 -25.894  1.00  0.00     0.247 C 
ATOM      9  O   UNL     1       0.199 -12.088 -26.543  1.00  0.00    -0.272 OA
ATOM     10  N   UNL     1       1.119 -11.189 -24.687  1.00  0.00    -0.367 N 
ATOM     11  H   UNL     1       1.520 -10.365 -24.251  1.00  0.00     0.159 HD
ATOM     12  H   UNL     1       1.427 -12.104 -24.384  1.00  0.00     0.159 HD
ENDBRANCH   7   8
BRANCH   7  13
ATOM     13  O   UNL     1       0.708  -9.382 -27.596  1.00  0.00    -0.382 OA
ATOM     14  H   UNL     1       1.315 -10.118 -27.804  1.00  0.00     0.211 HD
ENDBRANCH   7  13
ENDBRANCH   1   7
TORSDOF 6
ENDMDL
MODEL 2
REMARK VINA RESULT:      -5.7      3.247      5.142
REMARK SMILES C=CC[S@@](=O)C[C@H](O)C(N)=O
REMARK SMILES IDX 6 1 4 2 5 3 3 4 2 5 1 6 7 7 9 8 11 9 10 10 8 13
REMARK H PARENT 10 11 10 12 8 14
ROOT
ATOM      1  C   UNL     1      -3.647 -10.531 -26.949  1.00  0.00     0.147 C 
ENDROOT
BRANCH   1   2
ATOM      2  S   UNL     1      -2.722  -9.018 -27.362  1.00  0.00     0.028 S 
ATOM      3  O   UNL     1      -3.047  -8.684 -28.790  1.00  0.00    -0.259 OA
BRANCH   2   4
ATOM      4  C   UNL     1      -1.057  -9.776 -27.353  1.00  0.00     0.131 C 
BRANCH   4   5
ATOM      5  C   UNL     1      -0.698 -10.209 -25.964  1.00  0.00    -0.021 C 
ATOM      6  C   UNL     1       0.543 -10.500 -25.552  1.00  0.00     0.005 C 
ENDBRANCH   4   5
ENDBRANCH   2   4
ENDBRANCH   1   2
BRANCH   1   7
ATOM      7  C   UNL     1      -5.155 -10.362 -27.095  1.00  0.00     0.215 C 
BRANCH   7   8
ATOM      8  C   UNL     1      -5.954 -11.333 -26.215  1.00  0.00     0.247 C 
ATOM      9  O   UNL     1      -6.044 -11.266 -24.996  1.00  0.00    -0.272 OA
ATOM     10  N   UNL     1      -6.558 -12.344 -26.912  1.00  0.00    -0.367 N 
ATOM     11  H   UNL     1      -6.642 -12.288 -27.921  1.00  0.00     0.159 HD
ATOM     12  H   UNL     1      -7.152 -12.985 -26.404  1.00  0.00     0.159 HD
ENDBRANCH   7   8
BRANCH   7  13
ATOM     13  O   UNL     1      -5.524  -9.015 -26.764  1.00  0.00    -0.382 OA
ATOM     14  H   UNL     1      -6.117  -8.697 -27.471  1.00  0.00     0.211 HD
ENDBRANCH   7  13
ENDBRANCH   1   7
TORSDOF 6
ENDMDL
MODEL 3
REMARK VINA RESULT:      -5.7      1.821      2.036
REMARK SMILES C=CC[S@@](=O)C[C@H](O)C(N)=O
REMARK SMILES IDX 6 1 4 2 5 3 3 4 2 5 1 6 7 7 9 8 11 9 10 10 8 13
REMARK H PARENT 10 11 10 12 8 14
ROOT
ATOM      1  C   UNL     1       0.178 -10.810 -27.022  1.00  0.00     0.147 C 
ENDROOT
BRANCH   1   2
ATOM      2  S   UNL     1      -0.729  -9.247 -27.244  1.00  0.00     0.028 S 
ATOM      3  O   UNL     1      -1.148  -8.788 -25.877  1.00  0.00    -0.259 OA
BRANCH   2   4
ATOM      4  C   UNL     1      -2.206  -9.966 -28.046  1.00  0.00     0.131 C 
BRANCH   4   5
ATOM      5  C   UNL     1      -3.406  -9.112 -27.771  1.00  0.00    -0.021 C 
ATOM      6  C   UNL     1      -4.555  -9.556 -27.247  1.00  0.00     0.005 C 
ENDBRANCH   4   5
ENDBRANCH   2   4
ENDBRANCH   1   2
BRANCH   1   7
ATOM      7  C   UNL     1       0.317 -11.213 -25.559  1.00  0.00     0.215 C 
BRANCH   7   8
ATOM      8  C   UNL     1       0.822 -12.651 -25.379  1.00  0.00     0.247 C 
ATOM      9  O   UNL     1       1.350 -13.325 -26.254  1.00  0.00    -0.272 OA
ATOM     10  N   UNL     1       0.602 -13.163 -24.130  1.00  0.00    -0.367 N 
ATOM     11  H   UNL     1       0.346 -12.549 -23.364  1.00  0.00     0.159 HD
ATOM     12  H   UNL     1       0.964 -14.084 -23.921  1.00  0.00     0.159 HD
ENDBRANCH   7   8
BRANCH   7  13
ATOM     13  O   UNL     1       1.217 -10.312 -24.895  1.00  0.00    -0.382 OA
ATOM     14  H   UNL     1       1.218  -9.479 -25.404  1.00  0.00     0.211 HD
ENDBRANCH   7  13
ENDBRANCH   1   7
TORSDOF 6
ENDMDL
MODEL 4
REMARK VINA RESULT:      -5.4     11.448     12.091
REMARK SMILES C=CC[S@@](=O)C[C@H](O)C(N)=O
REMARK SMILES IDX 6 1 4 2 5 3 3 4 2 5 1 6 7 7 9 8 11 9 10 10 8 13
REMARK H PARENT 10 11 10 12 8 14
ROOT
ATOM      1  C   UNL     1       5.359  -0.947 -24.681  1.00  0.00     0.147 C 
ENDROOT
BRANCH   1   2
ATOM      2  S   UNL     1       4.479  -2.196 -23.691  1.00  0.00     0.028 S 
ATOM      3  O   UNL     1       3.044  -1.758 -23.612  1.00  0.00    -0.259 OA
BRANCH   2   4
ATOM      4  C   UNL     1       5.255  -1.785 -22.087  1.00  0.00     0.131 C 
BRANCH   4   5
ATOM      5  C   UNL     1       5.644  -3.042 -21.369  1.00  0.00    -0.021 C 
ATOM      6  C   UNL     1       6.369  -3.085 -20.244  1.00  0.00     0.005 C 
ENDBRANCH   4   5
ENDBRANCH   2   4
ENDBRANCH   1   2
BRANCH   1   7
ATOM      7  C   UNL     1       4.597  -0.540 -25.937  1.00  0.00     0.215 C 
BRANCH   7   8
ATOM      8  C   UNL     1       5.507   0.048 -27.024  1.00  0.00     0.247 C 
ATOM      9  O   UNL     1       5.426  -0.203 -28.220  1.00  0.00    -0.272 OA
ATOM     10  N   UNL     1       6.478   0.882 -26.543  1.00  0.00    -0.367 N 
ATOM     11  H   UNL     1       6.423   1.235 -25.593  1.00  0.00     0.159 HD
ATOM     12  H   UNL     1       7.075   1.354 -27.208  1.00  0.00     0.159 HD
ENDBRANCH   7   8
BRANCH   7  13
ATOM     13  O   UNL     1       3.902  -1.678 -26.469  1.00  0.00    -0.382 OA
ATOM     14  H   UNL     1       3.134  -1.340 -26.967  1.00  0.00     0.211 HD
ENDBRANCH   7  13
ENDBRANCH   1   7
TORSDOF 6
ENDMDL
MODEL 5
REMARK VINA RESULT:      -5.3      2.543      4.685
REMARK SMILES C=CC[S@@](=O)C[C@H](O)C(N)=O
REMARK SMILES IDX 6 1 4 2 5 3 3 4 2 5 1 6 7 7 9 8 11 9 10 10 8 13
REMARK H PARENT 10 11 10 12 8 14
ROOT
ATOM      1  C   UNL     1      -1.848 -10.381 -27.365  1.00  0.00     0.147 C 
ENDROOT
BRANCH   1   2
ATOM      2  S   UNL     1      -0.911  -9.132 -26.428  1.00  0.00     0.028 S 
ATOM      3  O   UNL     1      -0.063  -8.388 -27.420  1.00  0.00    -0.259 OA
BRANCH   2   4
ATOM      4  C   UNL     1       0.188 -10.301 -25.551  1.00  0.00     0.131 C 
BRANCH   4   5
ATOM      5  C   UNL     1       0.171 -11.633 -26.237  1.00  0.00    -0.021 C 
ATOM      6  C   UNL     1       0.773 -12.737 -25.776  1.00  0.00     0.005 C 
ENDBRANCH   4   5
ENDBRANCH   2   4
ENDBRANCH   1   2
BRANCH   1   7
ATOM      7  C   UNL     1      -3.028  -9.789 -28.126  1.00  0.00     0.215 C 
BRANCH   7   8
ATOM      8  C   UNL     1      -4.319  -9.754 -27.296  1.00  0.00     0.247 C 
ATOM      9  O   UNL     1      -4.791  -8.754 -26.771  1.00  0.00    -0.272 OA
ATOM     10  N   UNL     1      -4.915 -10.976 -27.148  1.00  0.00    -0.367 N 
ATOM     11  H   UNL     1      -4.635 -11.755 -27.734  1.00  0.00     0.159 HD
ATOM     12  H   UNL     1      -5.803 -11.019 -26.665  1.00  0.00     0.159 HD
ENDBRANCH   7   8
BRANCH   7  13
ATOM     13  O   UNL     1      -2.707  -8.456 -28.553  1.00  0.00    -0.382 OA
ATOM     14  H   UNL     1      -1.735  -8.398 -28.609  1.00  0.00     0.211 HD
ENDBRANCH   7  13
ENDBRANCH   1   7
TORSDOF 6
ENDMDL
MODEL 6
REMARK VINA RESULT:      -5.1     14.495     15.746
REMARK SMILES C=CC[S@@](=O)C[C@H](O)C(N)=O
REMARK SMILES IDX 6 1 4 2 5 3 3 4 2 5 1 6 7 7 9 8 11 9 10 10 8 13
REMARK H PARENT 10 11 10 12 8 14
ROOT
ATOM      1  C   UNL     1       8.045  -0.579 -18.408  1.00  0.00     0.147 C 
ENDROOT
BRANCH   1   2
ATOM      2  S   UNL     1       6.425  -1.387 -18.608  1.00  0.00     0.028 S 
ATOM      3  O   UNL     1       6.213  -2.245 -17.393  1.00  0.00    -0.259 OA
BRANCH   2   4
ATOM      4  C   UNL     1       6.908  -2.501 -19.974  1.00  0.00     0.131 C 
BRANCH   4   5
ATOM      5  C   UNL     1       5.740  -2.733 -20.884  1.00  0.00    -0.021 C 
ATOM      6  C   UNL     1       5.549  -2.110 -22.055  1.00  0.00     0.005 C 
ENDBRANCH   4   5
ENDBRANCH   2   4
ENDBRANCH   1   2
BRANCH   1   7
ATOM      7  C   UNL     1       8.208   0.096 -17.051  1.00  0.00     0.215 C 
BRANCH   7   8
ATOM      8  C   UNL     1       9.199  -0.634 -16.135  1.00  0.00     0.247 C 
ATOM      9  O   UNL     1      10.357  -0.290 -15.936  1.00  0.00    -0.272 OA
ATOM     10  N   UNL     1       8.689  -1.764 -15.556  1.00  0.00    -0.367 N 
ATOM     11  H   UNL     1       7.690  -1.937 -15.568  1.00  0.00     0.159 HD
ATOM     12  H   UNL     1       9.267  -2.262 -14.892  1.00  0.00     0.159 HD
ENDBRANCH   7   8
BRANCH   7  13
ATOM     13  O   UNL     1       8.648   1.450 -17.236  1.00  0.00    -0.382 OA
ATOM     14  H   UNL     1       8.027   1.872 -17.860  1.00  0.00     0.211 HD
ENDBRANCH   7  13
ENDBRANCH   1   7
TORSDOF 6
ENDMDL
MODEL 7
REMARK VINA RESULT:      -4.9     15.308     16.562
REMARK SMILES C=CC[S@@](=O)C[C@H](O)C(N)=O
REMARK SMILES IDX 6 1 4 2 5 3 3 4 2 5 1 6 7 7 9 8 11 9 10 10 8 13
REMARK H PARENT 10 11 10 12 8 14
ROOT
ATOM      1  C   UNL     1       7.638   0.152 -16.857  1.00  0.00     0.147 C 
ENDROOT
BRANCH   1   2
ATOM      2  S   UNL     1       6.332  -0.824 -17.668  1.00  0.00     0.028 S 
ATOM      3  O   UNL     1       6.213  -2.113 -16.906  1.00  0.00    -0.259 OA
BRANCH   2   4
ATOM      4  C   UNL     1       7.258  -1.190 -19.202  1.00  0.00     0.131 C 
BRANCH   4   5
ATOM      5  C   UNL     1       6.343  -1.800 -20.220  1.00  0.00    -0.021 C 
ATOM      6  C   UNL     1       6.270  -3.109 -20.494  1.00  0.00     0.005 C 
ENDBRANCH   4   5
ENDBRANCH   2   4
ENDBRANCH   1   2
BRANCH   1   7
ATOM      7  C   UNL     1       8.930  -0.633 -16.662  1.00  0.00     0.215 C 
BRANCH   7   8
ATOM      8  C   UNL     1      10.077   0.229 -16.116  1.00  0.00     0.247 C 
ATOM      9  O   UNL     1      11.129  -0.205 -15.666  1.00  0.00    -0.272 OA
ATOM     10  N   UNL     1       9.818   1.572 -16.135  1.00  0.00    -0.367 N 
ATOM     11  H   UNL     1       9.041   1.934 -16.677  1.00  0.00     0.159 HD
ATOM     12  H   UNL     1      10.553   2.204 -15.847  1.00  0.00     0.159 HD
ENDBRANCH   7   8
BRANCH   7  13
ATOM     13  O   UNL     1       8.697  -1.730 -15.765  1.00  0.00    -0.382 OA
ATOM     14  H   UNL     1       8.741  -2.549 -16.295  1.00  0.00     0.211 HD
ENDBRANCH   7  13
ENDBRANCH   1   7
TORSDOF 6
ENDMDL
MODEL 8
REMARK VINA RESULT:      -4.9     10.787     11.732
REMARK SMILES C=CC[S@@](=O)C[C@H](O)C(N)=O
REMARK SMILES IDX 6 1 4 2 5 3 3 4 2 5 1 6 7 7 9 8 11 9 10 10 8 13
REMARK H PARENT 10 11 10 12 8 14
ROOT
ATOM      1  C   UNL     1       5.307  -1.319 -24.230  1.00  0.00     0.147 C 
ENDROOT
BRANCH   1   2
ATOM      2  S   UNL     1       4.345  -0.544 -25.568  1.00  0.00     0.028 S 
ATOM      3  O   UNL     1       3.826  -1.657 -26.433  1.00  0.00    -0.259 OA
BRANCH   2   4
ATOM      4  C   UNL     1       5.763   0.203 -26.447  1.00  0.00     0.131 C 
BRANCH   4   5
ATOM      5  C   UNL     1       5.658  -0.071 -27.916  1.00  0.00    -0.021 C 
ATOM      6  C   UNL     1       6.035   0.779 -28.880  1.00  0.00     0.005 C 
ENDBRANCH   4   5
ENDBRANCH   2   4
ENDBRANCH   1   2
BRANCH   1   7
ATOM      7  C   UNL     1       4.510  -2.362 -23.455  1.00  0.00     0.215 C 
BRANCH   7   8
ATOM      8  C   UNL     1       5.046  -2.590 -22.034  1.00  0.00     0.247 C 
ATOM      9  O   UNL     1       4.804  -3.569 -21.340  1.00  0.00    -0.272 OA
ATOM     10  N   UNL     1       5.818  -1.564 -21.563  1.00  0.00    -0.367 N 
ATOM     11  H   UNL     1       6.170  -0.856 -22.198  1.00  0.00     0.159 HD
ATOM     12  H   UNL     1       6.255  -1.672 -20.657  1.00  0.00     0.159 HD
ENDBRANCH   7   8
BRANCH   7  13
ATOM     13  O   UNL     1       3.134  -1.961 -23.380  1.00  0.00    -0.382 OA
ATOM     14  H   UNL     1       2.789  -2.273 -22.522  1.00  0.00     0.211 HD
ENDBRANCH   7  13
ENDBRANCH   1   7
TORSDOF 6
ENDMDL
MODEL 9
REMARK VINA RESULT:      -4.7     15.741     17.435
REMARK SMILES C=CC[S@@](=O)C[C@H](O)C(N)=O
REMARK SMILES IDX 6 1 4 2 5 3 3 4 2 5 1 6 7 7 9 8 11 9 10 10 8 13
REMARK H PARENT 10 11 10 12 8 14
ROOT
ATOM      1  C   UNL     1       7.409   0.096 -16.918  1.00  0.00     0.147 C 
ENDROOT
BRANCH   1   2
ATOM      2  S   UNL     1       8.976  -0.792 -16.650  1.00  0.00     0.028 S 
ATOM      3  O   UNL     1       8.783  -1.662 -15.441  1.00  0.00    -0.259 OA
BRANCH   2   4
ATOM      4  C   UNL     1       9.956   0.657 -16.119  1.00  0.00     0.131 C 
BRANCH   4   5
ATOM      5  C   UNL     1      11.313   0.217 -15.658  1.00  0.00    -0.021 C 
ATOM      6  C   UNL     1      12.460   0.838 -15.960  1.00  0.00     0.005 C 
ENDBRANCH   4   5
ENDBRANCH   2   4
ENDBRANCH   1   2
BRANCH   1   7
ATOM      7  C   UNL     1       6.271  -0.823 -17.345  1.00  0.00     0.215 C 
BRANCH   7   8
ATOM      8  C   UNL     1       6.590  -1.619 -18.619  1.00  0.00     0.247 C 
ATOM      9  O   UNL     1       6.955  -1.129 -19.680  1.00  0.00    -0.272 OA
ATOM     10  N   UNL     1       6.399  -2.967 -18.492  1.00  0.00    -0.367 N 
ATOM     11  H   UNL     1       6.286  -3.383 -17.574  1.00  0.00     0.159 HD
ATOM     12  H   UNL     1       6.649  -3.560 -19.272  1.00  0.00     0.159 HD
ENDBRANCH   7   8
BRANCH   7  13
ATOM     13  O   UNL     1       5.967  -1.739 -16.282  1.00  0.00    -0.382 OA
ATOM     14  H   UNL     1       6.495  -2.546 -16.437  1.00  0.00     0.211 HD
ENDBRANCH   7  13
ENDBRANCH   1   7
TORSDOF 6
ENDMDL
MODEL 10
REMARK VINA RESULT:      -4.6     11.343     12.322
REMARK SMILES C=CC[S@@](=O)C[C@H](O)C(N)=O
REMARK SMILES IDX 6 1 4 2 5 3 3 4 2 5 1 6 7 7 9 8 11 9 10 10 8 13
REMARK H PARENT 10 11 10 12 8 14
ROOT
ATOM      1  C   UNL     1      -5.165   1.193 -31.587  1.00  0.00     0.147 C 
ENDROOT
BRANCH   1   2
ATOM      2  S   UNL     1      -6.914   0.700 -31.467  1.00  0.00     0.028 S 
ATOM      3  O   UNL     1      -6.950  -0.800 -31.540  1.00  0.00    -0.259 OA
BRANCH   2   4
ATOM      4  C   UNL     1      -7.428   1.330 -33.104  1.00  0.00     0.131 C 
BRANCH   4   5
ATOM      5  C   UNL     1      -8.421   0.395 -33.725  1.00  0.00    -0.021 C 
ATOM      6  C   UNL     1      -9.744   0.440 -33.519  1.00  0.00     0.005 C 
ENDBRANCH   4   5
ENDBRANCH   2   4
ENDBRANCH   1   2
BRANCH   1   7
ATOM      7  C   UNL     1      -4.313   0.641 -30.450  1.00  0.00     0.215 C 
BRANCH   7   8
ATOM      8  C   UNL     1      -3.417  -0.527 -30.887  1.00  0.00     0.247 C 
ATOM      9  O   UNL     1      -3.662  -1.711 -30.694  1.00  0.00    -0.272 OA
ATOM     10  N   UNL     1      -2.261  -0.137 -31.503  1.00  0.00    -0.367 N 
ATOM     11  H   UNL     1      -2.153   0.817 -31.830  1.00  0.00     0.159 HD
ATOM     12  H   UNL     1      -1.651  -0.854 -31.873  1.00  0.00     0.159 HD
ENDBRANCH   7   8
BRANCH   7  13
ATOM     13  O   UNL     1      -3.492   1.687 -29.910  1.00  0.00    -0.382 OA
ATOM     14  H   UNL     1      -3.558   1.633 -28.938  1.00  0.00     0.211 HD
ENDBRANCH   7  13
ENDBRANCH   1   7
TORSDOF 6
ENDMDL
