MODEL 1
REMARK VINA RESULT:      -5.7      0.000      0.000
REMARK SMILES C=CC[S@](=O)C[C@H](N)C(=O)O
REMARK SMILES IDX 6 1 4 2 5 3 3 4 2 5 1 6 7 7 9 8 10 9 11 10 8 12
REMARK H PARENT 11 11 8 13 8 14
ROOT
ATOM      1  C   UNL     1      -1.665 -10.376 -27.033  1.00  0.00     0.136 C 
ENDROOT
BRANCH   1   2
ATOM      2  S   UNL     1      -2.936  -9.076 -27.238  1.00  0.00     0.027 S 
ATOM      3  O   UNL     1      -2.594  -8.331 -28.500  1.00  0.00    -0.259 OA
BRANCH   2   4
ATOM      4  C   UNL     1      -4.328 -10.206 -27.601  1.00  0.00     0.131 C 
BRANCH   4   5
ATOM      5  C   UNL     1      -5.374 -10.086 -26.535  1.00  0.00    -0.021 C 
ATOM      6  C   UNL     1      -5.922 -11.123 -25.887  1.00  0.00     0.005 C 
ENDBRANCH   4   5
ENDBRANCH   2   4
ENDBRANCH   1   2
BRANCH   1   7
ATOM      7  C   UNL     1      -0.417  -9.843 -26.325  1.00  0.00     0.174 C 
BRANCH   7   8
ATOM      8  C   UNL     1       0.461 -11.006 -25.823  1.00  0.00     0.321 C 
ATOM      9  O   UNL     1       0.505 -12.097 -26.381  1.00  0.00    -0.251 OA
BRANCH   8  10
ATOM     10  O   UNL     1       1.198 -10.738 -24.727  1.00  0.00    -0.480 OA
ATOM     11  H   UNL     1       1.533  -9.807 -24.662  1.00  0.00     0.296 HD
ENDBRANCH   8  10
ENDBRANCH   7   8
BRANCH   7  12
ATOM     12  N   UNL     1       0.370  -9.018 -27.286  1.00  0.00    -0.318 NA
ATOM     13  H   UNL     1       1.293  -8.854 -26.865  1.00  0.00     0.119 HD
ATOM     14  H   UNL     1      -0.037  -8.077 -27.290  1.00  0.00     0.119 HD
ENDBRANCH   7  12
ENDBRANCH   1   7
TORSDOF 7
ENDMDL
MODEL 2
REMARK VINA RESULT:      -5.6      3.047      5.133
REMARK SMILES C=CC[S@](=O)C[C@H](N)C(=O)O
REMARK SMILES IDX 6 1 4 2 5 3 3 4 2 5 1 6 7 7 9 8 10 9 11 10 8 12
REMARK H PARENT 11 11 8 13 8 14
ROOT
ATOM      1  C   UNL     1      -3.415 -10.669 -26.898  1.00  0.00     0.136 C 
ENDROOT
BRANCH   1   2
ATOM      2  S   UNL     1      -2.228  -9.846 -28.021  1.00  0.00     0.027 S 
ATOM      3  O   UNL     1      -3.001  -8.800 -28.777  1.00  0.00    -0.259 OA
BRANCH   2   4
ATOM      4  C   UNL     1      -1.258  -9.008 -26.716  1.00  0.00     0.131 C 
BRANCH   4   5
ATOM      5  C   UNL     1       0.085  -9.657 -26.581  1.00  0.00    -0.021 C 
ATOM      6  C   UNL     1       0.384 -10.607 -25.685  1.00  0.00     0.005 C 
ENDBRANCH   4   5
ENDBRANCH   2   4
ENDBRANCH   1   2
BRANCH   1   7
ATOM      7  C   UNL     1      -4.848 -10.189 -27.137  1.00  0.00     0.174 C 
BRANCH   7   8
ATOM      8  C   UNL     1      -5.855 -11.103 -26.412  1.00  0.00     0.321 C 
ATOM      9  O   UNL     1      -5.910 -11.196 -25.190  1.00  0.00    -0.251 OA
BRANCH   8  10
ATOM     10  O   UNL     1      -6.689 -11.791 -27.216  1.00  0.00    -0.480 OA
ATOM     11  H   UNL     1      -6.398 -12.713 -27.435  1.00  0.00     0.296 HD
ENDBRANCH   8  10
ENDBRANCH   7   8
BRANCH   7  12
ATOM     12  N   UNL     1      -4.987  -8.800 -26.614  1.00  0.00    -0.318 NA
ATOM     13  H   UNL     1      -5.959  -8.686 -26.301  1.00  0.00     0.119 HD
ATOM     14  H   UNL     1      -4.941  -8.162 -27.415  1.00  0.00     0.119 HD
ENDBRANCH   7  12
ENDBRANCH   1   7
TORSDOF 7
ENDMDL
MODEL 3
REMARK VINA RESULT:      -5.5      2.170      2.657
REMARK SMILES C=CC[S@](=O)C[C@H](N)C(=O)O
REMARK SMILES IDX 6 1 4 2 5 3 3 4 2 5 1 6 7 7 9 8 10 9 11 10 8 12
REMARK H PARENT 11 11 8 13 8 14
ROOT
ATOM      1  C   UNL     1       0.353 -10.954 -26.578  1.00  0.00     0.136 C 
ENDROOT
BRANCH   1   2
ATOM      2  S   UNL     1      -0.743  -9.490 -26.632  1.00  0.00     0.027 S 
ATOM      3  O   UNL     1       0.034  -8.392 -27.305  1.00  0.00    -0.259 OA
BRANCH   2   4
ATOM      4  C   UNL     1      -1.935 -10.171 -27.841  1.00  0.00     0.131 C 
BRANCH   4   5
ATOM      5  C   UNL     1      -3.119  -9.261 -27.959  1.00  0.00    -0.021 C 
ATOM      6  C   UNL     1      -4.343  -9.540 -27.490  1.00  0.00     0.005 C 
ENDBRANCH   4   5
ENDBRANCH   2   4
ENDBRANCH   1   2
BRANCH   1   7
ATOM      7  C   UNL     1       0.519 -11.486 -25.153  1.00  0.00     0.174 C 
BRANCH   7   8
ATOM      8  C   UNL     1       0.921 -12.974 -25.172  1.00  0.00     0.321 C 
ATOM      9  O   UNL     1       0.588 -13.766 -24.297  1.00  0.00    -0.251 OA
BRANCH   8  10
ATOM     10  O   UNL     1       1.660 -13.356 -26.233  1.00  0.00    -0.480 OA
ATOM     11  H   UNL     1       2.223 -14.159 -26.086  1.00  0.00     0.296 HD
ENDBRANCH   8  10
ENDBRANCH   7   8
BRANCH   7  12
ATOM     12  N   UNL     1       1.585 -10.703 -24.465  1.00  0.00    -0.318 NA
ATOM     13  H   UNL     1       1.245 -10.488 -23.519  1.00  0.00     0.119 HD
ATOM     14  H   UNL     1       1.617  -9.776 -24.901  1.00  0.00     0.119 HD
ENDBRANCH   7  12
ENDBRANCH   1   7
TORSDOF 7
ENDMDL
MODEL 4
REMARK VINA RESULT:      -5.0     14.151     15.662
REMARK SMILES C=CC[S@](=O)C[C@H](N)C(=O)O
REMARK SMILES IDX 6 1 4 2 5 3 3 4 2 5 1 6 7 7 9 8 10 9 11 10 8 12
REMARK H PARENT 11 11 8 13 8 14
ROOT
ATOM      1  C   UNL     1       6.514  -1.715 -17.063  1.00  0.00     0.136 C 
ENDROOT
BRANCH   1   2
ATOM      2  S   UNL     1       6.553  -1.264 -18.836  1.00  0.00     0.027 S 
ATOM      3  O   UNL     1       7.966  -0.853 -19.147  1.00  0.00    -0.259 OA
BRANCH   2   4
ATOM      4  C   UNL     1       6.293  -2.955 -19.484  1.00  0.00     0.131 C 
BRANCH   4   5
ATOM      5  C   UNL     1       6.295  -2.934 -20.981  1.00  0.00    -0.021 C 
ATOM      6  C   UNL     1       5.499  -2.160 -21.732  1.00  0.00     0.005 C 
ENDBRANCH   4   5
ENDBRANCH   2   4
ENDBRANCH   1   2
BRANCH   1   7
ATOM      7  C   UNL     1       7.189  -0.654 -16.192  1.00  0.00     0.174 C 
BRANCH   7   8
ATOM      8  C   UNL     1       8.674  -1.002 -15.966  1.00  0.00     0.321 C 
ATOM      9  O   UNL     1       9.044  -1.847 -15.157  1.00  0.00    -0.251 OA
BRANCH   8  10
ATOM     10  O   UNL     1       9.547  -0.320 -16.732  1.00  0.00    -0.480 OA
ATOM     11  H   UNL     1      10.072  -0.873 -17.366  1.00  0.00     0.296 HD
ENDBRANCH   8  10
ENDBRANCH   7   8
BRANCH   7  12
ATOM     12  N   UNL     1       7.098   0.666 -16.880  1.00  0.00    -0.318 NA
ATOM     13  H   UNL     1       6.154   0.739 -17.279  1.00  0.00     0.119 HD
ATOM     14  H   UNL     1       7.686   0.619 -17.718  1.00  0.00     0.119 HD
ENDBRANCH   7  12
ENDBRANCH   1   7
TORSDOF 7
ENDMDL
MODEL 5
REMARK VINA RESULT:      -5.0      2.348      4.924
REMARK SMILES C=CC[S@](=O)C[C@H](N)C(=O)O
REMARK SMILES IDX 6 1 4 2 5 3 3 4 2 5 1 6 7 7 9 8 10 9 11 10 8 12
REMARK H PARENT 11 11 8 13 8 14
ROOT
ATOM      1  C   UNL     1      -1.562  -9.978 -26.386  1.00  0.00     0.136 C 
ENDROOT
BRANCH   1   2
ATOM      2  S   UNL     1       0.186 -10.146 -26.896  1.00  0.00     0.027 S 
ATOM      3  O   UNL     1       0.651  -8.776 -27.308  1.00  0.00    -0.259 OA
BRANCH   2   4
ATOM      4  C   UNL     1       0.853 -10.498 -25.229  1.00  0.00     0.131 C 
BRANCH   4   5
ATOM      5  C   UNL     1       0.770 -11.967 -24.946  1.00  0.00    -0.021 C 
ATOM      6  C   UNL     1       0.923 -12.928 -25.866  1.00  0.00     0.005 C 
ENDBRANCH   4   5
ENDBRANCH   2   4
ENDBRANCH   1   2
BRANCH   1   7
ATOM      7  C   UNL     1      -2.522 -10.377 -27.509  1.00  0.00     0.174 C 
BRANCH   7   8
ATOM      8  C   UNL     1      -3.914  -9.757 -27.280  1.00  0.00     0.321 C 
ATOM      9  O   UNL     1      -4.078  -8.578 -26.985  1.00  0.00    -0.251 OA
BRANCH   8  10
ATOM     10  O   UNL     1      -4.953 -10.601 -27.442  1.00  0.00    -0.480 OA
ATOM     11  H   UNL     1      -5.829 -10.253 -27.133  1.00  0.00     0.296 HD
ENDBRANCH   8  10
ENDBRANCH   7   8
BRANCH   7  12
ATOM     12  N   UNL     1      -1.978  -9.887 -28.808  1.00  0.00    -0.318 NA
ATOM     13  H   UNL     1      -2.754  -9.876 -29.481  1.00  0.00     0.119 HD
ATOM     14  H   UNL     1      -1.372 -10.622 -29.186  1.00  0.00     0.119 HD
ENDBRANCH   7  12
ENDBRANCH   1   7
TORSDOF 7
ENDMDL
MODEL 6
REMARK VINA RESULT:      -4.7     14.941     16.785
REMARK SMILES C=CC[S@](=O)C[C@H](N)C(=O)O
REMARK SMILES IDX 6 1 4 2 5 3 3 4 2 5 1 6 7 7 9 8 10 9 11 10 8 12
REMARK H PARENT 11 11 8 13 8 14
ROOT
ATOM      1  C   UNL     1       8.124  -0.847 -18.717  1.00  0.00     0.136 C 
ENDROOT
BRANCH   1   2
ATOM      2  S   UNL     1       8.372   0.460 -17.461  1.00  0.00     0.027 S 
ATOM      3  O   UNL     1       7.068   0.607 -16.725  1.00  0.00    -0.259 OA
BRANCH   2   4
ATOM      4  C   UNL     1       9.523  -0.490 -16.402  1.00  0.00     0.131 C 
BRANCH   4   5
ATOM      5  C   UNL     1      10.465   0.444 -15.706  1.00  0.00    -0.021 C 
ATOM      6  C   UNL     1      11.801   0.368 -15.777  1.00  0.00     0.005 C 
ENDBRANCH   4   5
ENDBRANCH   2   4
ENDBRANCH   1   2
BRANCH   1   7
ATOM      7  C   UNL     1       6.682  -1.360 -18.725  1.00  0.00     0.174 C 
BRANCH   7   8
ATOM      8  C   UNL     1       6.424  -2.235 -19.967  1.00  0.00     0.321 C 
ATOM      9  O   UNL     1       5.940  -1.794 -21.004  1.00  0.00    -0.251 OA
BRANCH   8  10
ATOM     10  O   UNL     1       6.781  -3.529 -19.843  1.00  0.00    -0.480 OA
ATOM     11  H   UNL     1       6.540  -3.951 -18.978  1.00  0.00     0.296 HD
ENDBRANCH   8  10
ENDBRANCH   7   8
BRANCH   7  12
ATOM     12  N   UNL     1       6.452  -2.176 -17.498  1.00  0.00    -0.318 NA
ATOM     13  H   UNL     1       7.345  -2.622 -17.254  1.00  0.00     0.119 HD
ATOM     14  H   UNL     1       5.874  -2.978 -17.765  1.00  0.00     0.119 HD
ENDBRANCH   7  12
ENDBRANCH   1   7
TORSDOF 7
ENDMDL
MODEL 7
REMARK VINA RESULT:      -4.6     11.496     13.625
REMARK SMILES C=CC[S@](=O)C[C@H](N)C(=O)O
REMARK SMILES IDX 6 1 4 2 5 3 3 4 2 5 1 6 7 7 9 8 10 9 11 10 8 12
REMARK H PARENT 11 11 8 13 8 14
ROOT
ATOM      1  C   UNL     1      -8.992  -1.031 -31.966  1.00  0.00     0.136 C 
ENDROOT
BRANCH   1   2
ATOM      2  S   UNL     1      -7.482  -1.086 -30.935  1.00  0.00     0.027 S 
ATOM      3  O   UNL     1      -7.649  -0.041 -29.866  1.00  0.00    -0.259 OA
BRANCH   2   4
ATOM      4  C   UNL     1      -7.802  -2.725 -30.189  1.00  0.00     0.131 C 
BRANCH   4   5
ATOM      5  C   UNL     1      -9.003  -3.351 -30.828  1.00  0.00    -0.021 C 
ATOM      6  C   UNL     1      -9.737  -4.327 -30.276  1.00  0.00     0.005 C 
ENDBRANCH   4   5
ENDBRANCH   2   4
ENDBRANCH   1   2
BRANCH   1   7
ATOM      7  C   UNL     1      -9.791   0.253 -31.734  1.00  0.00     0.174 C 
BRANCH   7   8
ATOM      8  C   UNL     1     -10.552   0.658 -33.011  1.00  0.00     0.321 C 
ATOM      9  O   UNL     1     -10.790  -0.127 -33.923  1.00  0.00    -0.251 OA
BRANCH   8  10
ATOM     10  O   UNL     1     -10.955   1.944 -33.057  1.00  0.00    -0.480 OA
ATOM     11  H   UNL     1     -11.930   2.074 -33.180  1.00  0.00     0.296 HD
ENDBRANCH   8  10
ENDBRANCH   7   8
BRANCH   7  12
ATOM     12  N   UNL     1     -10.774   0.020 -30.636  1.00  0.00    -0.318 NA
ATOM     13  H   UNL     1     -10.465  -0.813 -30.120  1.00  0.00     0.119 HD
ATOM     14  H   UNL     1     -11.647  -0.301 -31.067  1.00  0.00     0.119 HD
ENDBRANCH   7  12
ENDBRANCH   1   7
TORSDOF 7
ENDMDL
MODEL 8
REMARK VINA RESULT:      -4.6     11.881     13.888
REMARK SMILES C=CC[S@](=O)C[C@H](N)C(=O)O
REMARK SMILES IDX 6 1 4 2 5 3 3 4 2 5 1 6 7 7 9 8 10 9 11 10 8 12
REMARK H PARENT 11 11 8 13 8 14
ROOT
ATOM      1  C   UNL     1      -8.648  -0.978 -32.146  1.00  0.00     0.136 C 
ENDROOT
BRANCH   1   2
ATOM      2  S   UNL     1      -7.156  -0.072 -31.599  1.00  0.00     0.027 S 
ATOM      3  O   UNL     1      -7.637   1.136 -30.843  1.00  0.00    -0.259 OA
BRANCH   2   4
ATOM      4  C   UNL     1      -6.593  -1.319 -30.385  1.00  0.00     0.131 C 
BRANCH   4   5
ATOM      5  C   UNL     1      -5.257  -0.927 -29.832  1.00  0.00    -0.021 C 
ATOM      6  C   UNL     1      -4.149  -1.675 -29.918  1.00  0.00     0.005 C 
ENDBRANCH   4   5
ENDBRANCH   2   4
ENDBRANCH   1   2
BRANCH   1   7
ATOM      7  C   UNL     1      -9.302  -0.315 -33.360  1.00  0.00     0.174 C 
BRANCH   7   8
ATOM      8  C   UNL     1     -10.701   0.220 -32.998  1.00  0.00     0.321 C 
ATOM      9  O   UNL     1     -11.635  -0.512 -32.684  1.00  0.00    -0.251 OA
BRANCH   8  10
ATOM     10  O   UNL     1     -10.831   1.561 -33.036  1.00  0.00    -0.480 OA
ATOM     11  H   UNL     1     -10.944   1.948 -33.942  1.00  0.00     0.296 HD
ENDBRANCH   8  10
ENDBRANCH   7   8
BRANCH   7  12
ATOM     12  N   UNL     1      -8.448   0.821 -33.809  1.00  0.00    -0.318 NA
ATOM     13  H   UNL     1      -8.488   0.848 -34.836  1.00  0.00     0.119 HD
ATOM     14  H   UNL     1      -7.471   0.560 -33.637  1.00  0.00     0.119 HD
ENDBRANCH   7  12
ENDBRANCH   1   7
TORSDOF 7
ENDMDL
MODEL 9
REMARK VINA RESULT:      -4.5      2.346      4.978
REMARK SMILES C=CC[S@](=O)C[C@H](N)C(=O)O
REMARK SMILES IDX 6 1 4 2 5 3 3 4 2 5 1 6 7 7 9 8 10 9 11 10 8 12
REMARK H PARENT 11 11 8 13 8 14
ROOT
ATOM      1  C   UNL     1      -1.217 -10.835 -26.934  1.00  0.00     0.136 C 
ENDROOT
BRANCH   1   2
ATOM      2  S   UNL     1       0.525 -11.051 -26.419  1.00  0.00     0.027 S 
ATOM      3  O   UNL     1       0.713 -10.230 -25.173  1.00  0.00    -0.259 OA
BRANCH   2   4
ATOM      4  C   UNL     1       0.379 -12.808 -25.930  1.00  0.00     0.131 C 
BRANCH   4   5
ATOM      5  C   UNL     1       1.058 -13.029 -24.614  1.00  0.00    -0.021 C 
ATOM      6  C   UNL     1       0.585 -13.815 -23.637  1.00  0.00     0.005 C 
ENDBRANCH   4   5
ENDBRANCH   2   4
ENDBRANCH   1   2
BRANCH   1   7
ATOM      7  C   UNL     1      -1.558  -9.365 -27.182  1.00  0.00     0.174 C 
BRANCH   7   8
ATOM      8  C   UNL     1      -2.987  -9.225 -27.741  1.00  0.00     0.321 C 
ATOM      9  O   UNL     1      -3.220  -8.866 -28.891  1.00  0.00    -0.251 OA
BRANCH   8  10
ATOM     10  O   UNL     1      -3.975  -9.540 -26.881  1.00  0.00    -0.480 OA
ATOM     11  H   UNL     1      -3.984 -10.484 -26.578  1.00  0.00     0.296 HD
ENDBRANCH   8  10
ENDBRANCH   7   8
BRANCH   7  12
ATOM     12  N   UNL     1      -1.465  -8.622 -25.892  1.00  0.00    -0.318 NA
ATOM     13  H   UNL     1      -2.420  -8.529 -25.523  1.00  0.00     0.119 HD
ATOM     14  H   UNL     1      -1.221  -7.651 -26.111  1.00  0.00     0.119 HD
ENDBRANCH   7  12
ENDBRANCH   1   7
TORSDOF 7
ENDMDL
MODEL 10
REMARK VINA RESULT:      -4.5     11.434     12.464
REMARK SMILES C=CC[S@](=O)C[C@H](N)C(=O)O
REMARK SMILES IDX 6 1 4 2 5 3 3 4 2 5 1 6 7 7 9 8 10 9 11 10 8 12
REMARK H PARENT 11 11 8 13 8 14
ROOT
ATOM      1  C   UNL     1      -6.194  -0.626 -30.719  1.00  0.00     0.136 C 
ENDROOT
BRANCH   1   2
ATOM      2  S   UNL     1      -7.362   0.589 -31.429  1.00  0.00     0.027 S 
ATOM      3  O   UNL     1      -6.688   1.183 -32.637  1.00  0.00    -0.259 OA
BRANCH   2   4
ATOM      4  C   UNL     1      -8.600  -0.628 -32.005  1.00  0.00     0.131 C 
BRANCH   4   5
ATOM      5  C   UNL     1      -9.054  -0.279 -33.389  1.00  0.00    -0.021 C 
ATOM      6  C   UNL     1     -10.242   0.266 -33.685  1.00  0.00     0.005 C 
ENDBRANCH   4   5
ENDBRANCH   2   4
ENDBRANCH   1   2
BRANCH   1   7
ATOM      7  C   UNL     1      -4.914   0.044 -30.215  1.00  0.00     0.174 C 
BRANCH   7   8
ATOM      8  C   UNL     1      -3.810  -0.017 -31.289  1.00  0.00     0.321 C 
ATOM      9  O   UNL     1      -3.036  -0.963 -31.397  1.00  0.00    -0.251 OA
BRANCH   8  10
ATOM     10  O   UNL     1      -3.758   1.042 -32.121  1.00  0.00    -0.480 OA
ATOM     11  H   UNL     1      -3.420   1.881 -31.713  1.00  0.00     0.296 HD
ENDBRANCH   8  10
ENDBRANCH   7   8
BRANCH   7  12
ATOM     12  N   UNL     1      -5.207   1.471 -29.898  1.00  0.00    -0.318 NA
ATOM     13  H   UNL     1      -5.414   1.946 -30.786  1.00  0.00     0.119 HD
ATOM     14  H   UNL     1      -4.325   1.912 -29.617  1.00  0.00     0.119 HD
ENDBRANCH   7  12
ENDBRANCH   1   7
TORSDOF 7
ENDMDL
