MODEL 1
REMARK VINA RESULT:      -5.3      0.000      0.000
REMARK SMILES C=CCSC[C@H](N)C(=O)O
REMARK SMILES IDX 5 1 4 2 3 3 2 4 1 5 6 6 8 7 9 8 10 9 7 11
REMARK H PARENT 10 10 7 12 7 13
ROOT
ATOM      1  C   UNL     1       0.341  -9.937 -26.675  1.00  0.00     0.100 C 
ENDROOT
BRANCH   1   2
ATOM      2  S   UNL     1      -1.183  -8.928 -26.690  1.00  0.00    -0.156 SA
BRANCH   2   3
ATOM      3  C   UNL     1      -2.108  -9.864 -27.943  1.00  0.00     0.096 C 
BRANCH   3   4
ATOM      4  C   UNL     1      -3.483  -9.282 -28.064  1.00  0.00    -0.024 C 
ATOM      5  C   UNL     1      -4.514  -9.602 -27.271  1.00  0.00     0.005 C 
ENDBRANCH   3   4
ENDBRANCH   2   3
ENDBRANCH   1   2
BRANCH   1   6
ATOM      6  C   UNL     1       0.250 -11.078 -25.652  1.00  0.00     0.172 C 
BRANCH   6   7
ATOM      7  C   UNL     1       0.334 -12.424 -26.383  1.00  0.00     0.321 C 
ATOM      8  O   UNL     1      -0.496 -12.859 -27.164  1.00  0.00    -0.251 OA
BRANCH   7   9
ATOM      9  O   UNL     1       1.463 -13.099 -26.036  1.00  0.00    -0.480 OA
ATOM     10  H   UNL     1       2.205 -12.449 -26.137  1.00  0.00     0.296 HD
ENDBRANCH   7   9
ENDBRANCH   6   7
BRANCH   6  11
ATOM     11  N   UNL     1       1.331 -11.044 -24.610  1.00  0.00    -0.318 NA
ATOM     12  H   UNL     1       0.845 -10.970 -23.707  1.00  0.00     0.119 HD
ATOM     13  H   UNL     1       1.799 -10.132 -24.678  1.00  0.00     0.119 HD
ENDBRANCH   6  11
ENDBRANCH   1   6
TORSDOF 7
ENDMDL
MODEL 2
REMARK VINA RESULT:      -5.1      1.734      2.094
REMARK SMILES C=CCSC[C@H](N)C(=O)O
REMARK SMILES IDX 5 1 4 2 3 3 2 4 1 5 6 6 8 7 9 8 10 9 7 11
REMARK H PARENT 10 10 7 12 7 13
ROOT
ATOM      1  C   UNL     1      -1.526 -10.320 -27.122  1.00  0.00     0.100 C 
ENDROOT
BRANCH   1   2
ATOM      2  S   UNL     1      -2.588  -8.907 -27.591  1.00  0.00    -0.156 SA
BRANCH   2   3
ATOM      3  C   UNL     1      -4.108  -9.830 -27.964  1.00  0.00     0.096 C 
BRANCH   3   4
ATOM      4  C   UNL     1      -5.066  -9.666 -26.825  1.00  0.00    -0.024 C 
ATOM      5  C   UNL     1      -5.722 -10.674 -26.234  1.00  0.00     0.005 C 
ENDBRANCH   3   4
ENDBRANCH   2   3
ENDBRANCH   1   2
BRANCH   1   6
ATOM      6  C   UNL     1      -0.249  -9.852 -26.410  1.00  0.00     0.172 C 
BRANCH   6   7
ATOM      7  C   UNL     1       0.496 -11.070 -25.850  1.00  0.00     0.321 C 
ATOM      8  O   UNL     1       0.475 -12.194 -26.326  1.00  0.00    -0.251 OA
BRANCH   7   9
ATOM      9  O   UNL     1       1.184 -10.746 -24.723  1.00  0.00    -0.480 OA
ATOM     10  H   UNL     1       1.962 -11.359 -24.698  1.00  0.00     0.296 HD
ENDBRANCH   7   9
ENDBRANCH   6   7
BRANCH   6  11
ATOM     11  N   UNL     1       0.695  -9.095 -27.300  1.00  0.00    -0.318 NA
ATOM     12  H   UNL     1       0.209  -8.221 -27.541  1.00  0.00     0.119 HD
ATOM     13  H   UNL     1       0.726  -9.580 -28.204  1.00  0.00     0.119 HD
ENDBRANCH   6  11
ENDBRANCH   1   6
TORSDOF 7
ENDMDL
MODEL 3
REMARK VINA RESULT:      -4.8      4.126      5.432
REMARK SMILES C=CCSC[C@H](N)C(=O)O
REMARK SMILES IDX 5 1 4 2 3 3 2 4 1 5 6 6 8 7 9 8 10 9 7 11
REMARK H PARENT 10 10 7 12 7 13
ROOT
ATOM      1  C   UNL     1      -3.791 -10.540 -27.237  1.00  0.00     0.100 C 
ENDROOT
BRANCH   1   2
ATOM      2  S   UNL     1      -2.886  -9.107 -27.923  1.00  0.00    -0.156 SA
BRANCH   2   3
ATOM      3  C   UNL     1      -1.632  -8.936 -26.619  1.00  0.00     0.096 C 
BRANCH   3   4
ATOM      4  C   UNL     1      -0.850 -10.210 -26.530  1.00  0.00    -0.024 C 
ATOM      5  C   UNL     1       0.294 -10.351 -25.847  1.00  0.00     0.005 C 
ENDBRANCH   3   4
ENDBRANCH   2   3
ENDBRANCH   1   2
BRANCH   1   6
ATOM      6  C   UNL     1      -5.301 -10.269 -27.165  1.00  0.00     0.172 C 
BRANCH   6   7
ATOM      7  C   UNL     1      -5.965 -11.328 -26.276  1.00  0.00     0.321 C 
ATOM      8  O   UNL     1      -5.995 -11.313 -25.057  1.00  0.00    -0.251 OA
BRANCH   7   9
ATOM      9  O   UNL     1      -6.514 -12.320 -27.027  1.00  0.00    -0.480 OA
ATOM     10  H   UNL     1      -6.270 -13.167 -26.573  1.00  0.00     0.296 HD
ENDBRANCH   7   9
ENDBRANCH   6   7
BRANCH   6  11
ATOM     11  N   UNL     1      -5.646  -8.914 -26.615  1.00  0.00    -0.318 NA
ATOM     12  H   UNL     1      -5.353  -8.931 -25.630  1.00  0.00     0.119 HD
ATOM     13  H   UNL     1      -6.668  -8.863 -26.535  1.00  0.00     0.119 HD
ENDBRANCH   6  11
ENDBRANCH   1   6
TORSDOF 7
ENDMDL
MODEL 4
REMARK VINA RESULT:      -4.4      3.438      5.164
REMARK SMILES C=CCSC[C@H](N)C(=O)O
REMARK SMILES IDX 5 1 4 2 3 3 2 4 1 5 6 6 8 7 9 8 10 9 7 11
REMARK H PARENT 10 10 7 12 7 13
ROOT
ATOM      1  C   UNL     1      -1.904  -9.933 -26.582  1.00  0.00     0.100 C 
ENDROOT
BRANCH   1   2
ATOM      2  S   UNL     1      -0.248 -10.417 -27.189  1.00  0.00    -0.156 SA
BRANCH   2   3
ATOM      3  C   UNL     1       0.477 -10.930 -25.604  1.00  0.00     0.096 C 
BRANCH   3   4
ATOM      4  C   UNL     1       0.701 -12.410 -25.631  1.00  0.00    -0.024 C 
ATOM      5  C   UNL     1       0.795 -13.183 -24.541  1.00  0.00     0.005 C 
ENDBRANCH   3   4
ENDBRANCH   2   3
ENDBRANCH   1   2
BRANCH   1   6
ATOM      6  C   UNL     1      -2.969 -10.079 -27.678  1.00  0.00     0.172 C 
BRANCH   6   7
ATOM      7  C   UNL     1      -4.359 -10.124 -27.031  1.00  0.00     0.321 C 
ATOM      8  O   UNL     1      -5.029 -11.130 -26.861  1.00  0.00    -0.251 OA
BRANCH   7   9
ATOM      9  O   UNL     1      -4.775  -8.878 -26.679  1.00  0.00    -0.480 OA
ATOM     10  H   UNL     1      -4.054  -8.507 -26.107  1.00  0.00     0.296 HD
ENDBRANCH   7   9
ENDBRANCH   6   7
BRANCH   6  11
ATOM     11  N   UNL     1      -2.957  -8.965 -28.684  1.00  0.00    -0.318 NA
ATOM     12  H   UNL     1      -2.127  -8.399 -28.463  1.00  0.00     0.119 HD
ATOM     13  H   UNL     1      -3.724  -8.324 -28.447  1.00  0.00     0.119 HD
ENDBRANCH   6  11
ENDBRANCH   1   6
TORSDOF 7
ENDMDL
MODEL 5
REMARK VINA RESULT:      -4.4     12.403     13.508
REMARK SMILES C=CCSC[C@H](N)C(=O)O
REMARK SMILES IDX 5 1 4 2 3 3 2 4 1 5 6 6 8 7 9 8 10 9 7 11
REMARK H PARENT 10 10 7 12 7 13
ROOT
ATOM      1  C   UNL     1      -5.744   0.185 -31.416  1.00  0.00     0.100 C 
ENDROOT
BRANCH   1   2
ATOM      2  S   UNL     1      -6.975   1.483 -31.791  1.00  0.00    -0.156 SA
BRANCH   2   3
ATOM      3  C   UNL     1      -7.659   0.769 -33.316  1.00  0.00     0.096 C 
BRANCH   3   4
ATOM      4  C   UNL     1      -9.134   1.021 -33.349  1.00  0.00    -0.024 C 
ATOM      5  C   UNL     1     -10.051   0.113 -33.711  1.00  0.00     0.005 C 
ENDBRANCH   3   4
ENDBRANCH   2   3
ENDBRANCH   1   2
BRANCH   1   6
ATOM      6  C   UNL     1      -4.327   0.768 -31.313  1.00  0.00     0.172 C 
BRANCH   6   7
ATOM      7  C   UNL     1      -3.318  -0.376 -31.151  1.00  0.00     0.321 C 
ATOM      8  O   UNL     1      -3.589  -1.518 -30.818  1.00  0.00    -0.251 OA
BRANCH   7   9
ATOM      9  O   UNL     1      -2.052   0.048 -31.410  1.00  0.00    -0.480 OA
ATOM     10  H   UNL     1      -1.732  -0.508 -32.165  1.00  0.00     0.296 HD
ENDBRANCH   7   9
ENDBRANCH   6   7
BRANCH   6  11
ATOM     11  N   UNL     1      -3.921   1.583 -32.507  1.00  0.00    -0.318 NA
ATOM     12  H   UNL     1      -3.636   2.499 -32.135  1.00  0.00     0.119 HD
ATOM     13  H   UNL     1      -4.774   1.818 -33.028  1.00  0.00     0.119 HD
ENDBRANCH   6  11
ENDBRANCH   1   6
TORSDOF 7
ENDMDL
MODEL 6
REMARK VINA RESULT:      -4.4     13.270     14.873
REMARK SMILES C=CCSC[C@H](N)C(=O)O
REMARK SMILES IDX 5 1 4 2 3 3 2 4 1 5 6 6 8 7 9 8 10 9 7 11
REMARK H PARENT 10 10 7 12 7 13
ROOT
ATOM      1  C   UNL     1      -8.688  -0.829 -32.232  1.00  0.00     0.100 C 
ENDROOT
BRANCH   1   2
ATOM      2  S   UNL     1      -7.158  -0.399 -31.329  1.00  0.00    -0.156 SA
BRANCH   2   3
ATOM      3  C   UNL     1      -7.047  -1.875 -30.275  1.00  0.00     0.096 C 
BRANCH   3   4
ATOM      4  C   UNL     1      -8.234  -2.748 -30.539  1.00  0.00    -0.024 C 
ATOM      5  C   UNL     1      -8.262  -4.072 -30.337  1.00  0.00     0.005 C 
ENDBRANCH   3   4
ENDBRANCH   2   3
ENDBRANCH   1   2
BRANCH   1   6
ATOM      6  C   UNL     1      -9.097   0.284 -33.207  1.00  0.00     0.172 C 
BRANCH   6   7
ATOM      7  C   UNL     1     -10.600   0.555 -33.067  1.00  0.00     0.321 C 
ATOM      8  O   UNL     1     -11.469  -0.298 -32.986  1.00  0.00    -0.251 OA
BRANCH   7   9
ATOM      9  O   UNL     1     -10.857   1.890 -33.060  1.00  0.00    -0.480 OA
ATOM     10  H   UNL     1     -10.194   2.288 -32.441  1.00  0.00     0.296 HD
ENDBRANCH   7   9
ENDBRANCH   6   7
BRANCH   6  11
ATOM     11  N   UNL     1      -8.366   1.577 -32.988  1.00  0.00    -0.318 NA
ATOM     12  H   UNL     1      -8.620   2.178 -33.783  1.00  0.00     0.119 HD
ATOM     13  H   UNL     1      -7.369   1.403 -33.160  1.00  0.00     0.119 HD
ENDBRANCH   6  11
ENDBRANCH   1   6
TORSDOF 7
ENDMDL
MODEL 7
REMARK VINA RESULT:      -4.2     15.665     16.670
REMARK SMILES C=CCSC[C@H](N)C(=O)O
REMARK SMILES IDX 5 1 4 2 3 3 2 4 1 5 6 6 8 7 9 8 10 9 7 11
REMARK H PARENT 10 10 7 12 7 13
ROOT
ATOM      1  C   UNL     1       8.227   0.095 -17.550  1.00  0.00     0.100 C 
ENDROOT
BRANCH   1   2
ATOM      2  S   UNL     1       6.767  -0.986 -17.753  1.00  0.00    -0.156 SA
BRANCH   2   3
ATOM      3  C   UNL     1       6.913  -1.296 -19.538  1.00  0.00     0.096 C 
BRANCH   3   4
ATOM      4  C   UNL     1       6.387  -2.666 -19.836  1.00  0.00    -0.024 C 
ATOM      5  C   UNL     1       5.847  -3.033 -21.006  1.00  0.00     0.005 C 
ENDBRANCH   3   4
ENDBRANCH   2   3
ENDBRANCH   1   2
BRANCH   1   6
ATOM      6  C   UNL     1       9.257  -0.526 -16.596  1.00  0.00     0.172 C 
BRANCH   6   7
ATOM      7  C   UNL     1       9.794   0.558 -15.652  1.00  0.00     0.321 C 
ATOM      8  O   UNL     1      10.922   1.023 -15.676  1.00  0.00    -0.251 OA
BRANCH   7   9
ATOM      9  O   UNL     1       8.846   0.935 -14.753  1.00  0.00    -0.480 OA
ATOM     10  H   UNL     1       9.317   1.016 -13.884  1.00  0.00     0.296 HD
ENDBRANCH   7   9
ENDBRANCH   6   7
BRANCH   6  11
ATOM     11  N   UNL     1       8.708  -1.645 -15.758  1.00  0.00    -0.318 NA
ATOM     12  H   UNL     1       7.697  -1.665 -15.949  1.00  0.00     0.119 HD
ATOM     13  H   UNL     1       8.736  -1.340 -14.778  1.00  0.00     0.119 HD
ENDBRANCH   6  11
ENDBRANCH   1   6
TORSDOF 7
ENDMDL
MODEL 8
REMARK VINA RESULT:      -4.2     15.329     16.632
REMARK SMILES C=CCSC[C@H](N)C(=O)O
REMARK SMILES IDX 5 1 4 2 3 3 2 4 1 5 6 6 8 7 9 8 10 9 7 11
REMARK H PARENT 10 10 7 12 7 13
ROOT
ATOM      1  C   UNL     1       7.752  -0.559 -17.900  1.00  0.00     0.100 C 
ENDROOT
BRANCH   1   2
ATOM      2  S   UNL     1       8.424  -0.730 -16.208  1.00  0.00    -0.156 SA
BRANCH   2   3
ATOM      3  C   UNL     1       9.702   0.559 -16.299  1.00  0.00     0.096 C 
BRANCH   3   4
ATOM      4  C   UNL     1      10.994  -0.004 -15.793  1.00  0.00    -0.024 C 
ATOM      5  C   UNL     1      12.157   0.661 -15.777  1.00  0.00     0.005 C 
ENDBRANCH   3   4
ENDBRANCH   2   3
ENDBRANCH   1   2
BRANCH   1   6
ATOM      6  C   UNL     1       6.381  -1.237 -18.031  1.00  0.00     0.172 C 
BRANCH   6   7
ATOM      7  C   UNL     1       6.389  -2.168 -19.250  1.00  0.00     0.321 C 
ATOM      8  O   UNL     1       6.359  -1.809 -20.416  1.00  0.00    -0.251 OA
BRANCH   7   9
ATOM      9  O   UNL     1       6.416  -3.473 -18.868  1.00  0.00    -0.480 OA
ATOM     10  H   UNL     1       7.198  -3.872 -19.330  1.00  0.00     0.296 HD
ENDBRANCH   7   9
ENDBRANCH   6   7
BRANCH   6  11
ATOM     11  N   UNL     1       5.989  -2.045 -16.828  1.00  0.00    -0.318 NA
ATOM     12  H   UNL     1       5.977  -1.384 -16.041  1.00  0.00     0.119 HD
ATOM     13  H   UNL     1       6.784  -2.651 -16.589  1.00  0.00     0.119 HD
ENDBRANCH   6  11
ENDBRANCH   1   6
TORSDOF 7
ENDMDL
MODEL 9
REMARK VINA RESULT:      -4.1     13.290     14.900
REMARK SMILES C=CCSC[C@H](N)C(=O)O
REMARK SMILES IDX 5 1 4 2 3 3 2 4 1 5 6 6 8 7 9 8 10 9 7 11
REMARK H PARENT 10 10 7 12 7 13
ROOT
ATOM      1  C   UNL     1      -8.744  -0.656 -31.926  1.00  0.00     0.100 C 
ENDROOT
BRANCH   1   2
ATOM      2  S   UNL     1      -7.068  -0.065 -31.497  1.00  0.00    -0.156 SA
BRANCH   2   3
ATOM      3  C   UNL     1      -6.582  -1.423 -30.392  1.00  0.00     0.096 C 
BRANCH   3   4
ATOM      4  C   UNL     1      -5.286  -1.069 -29.732  1.00  0.00    -0.024 C 
ATOM      5  C   UNL     1      -4.752  -1.738 -28.701  1.00  0.00     0.005 C 
ENDBRANCH   3   4
ENDBRANCH   2   3
ENDBRANCH   1   2
BRANCH   1   6
ATOM      6  C   UNL     1      -9.808   0.413 -31.636  1.00  0.00     0.172 C 
BRANCH   6   7
ATOM      7  C   UNL     1     -10.597   0.704 -32.919  1.00  0.00     0.321 C 
ATOM      8  O   UNL     1     -10.902  -0.120 -33.766  1.00  0.00    -0.251 OA
BRANCH   7   9
ATOM      9  O   UNL     1     -10.908   2.025 -33.012  1.00  0.00    -0.480 OA
ATOM     10  H   UNL     1     -11.897   2.072 -32.949  1.00  0.00     0.296 HD
ENDBRANCH   7   9
ENDBRANCH   6   7
BRANCH   6  11
ATOM     11  N   UNL     1     -10.784   0.020 -30.565  1.00  0.00    -0.318 NA
ATOM     12  H   UNL     1     -10.258   0.056 -29.682  1.00  0.00     0.119 HD
ATOM     13  H   UNL     1     -10.967  -0.986 -30.666  1.00  0.00     0.119 HD
ENDBRANCH   6  11
ENDBRANCH   1   6
TORSDOF 7
ENDMDL
MODEL 10
REMARK VINA RESULT:      -4.1     13.829     15.365
REMARK SMILES C=CCSC[C@H](N)C(=O)O
REMARK SMILES IDX 5 1 4 2 3 3 2 4 1 5 6 6 8 7 9 8 10 9 7 11
REMARK H PARENT 10 10 7 12 7 13
ROOT
ATOM      1  C   UNL     1      -8.641   1.288 -31.933  1.00  0.00     0.100 C 
ENDROOT
BRANCH   1   2
ATOM      2  S   UNL     1      -7.002   1.314 -32.743  1.00  0.00    -0.156 SA
BRANCH   2   3
ATOM      3  C   UNL     1      -6.082   0.343 -31.512  1.00  0.00     0.096 C 
BRANCH   3   4
ATOM      4  C   UNL     1      -4.638   0.735 -31.567  1.00  0.00    -0.024 C 
ATOM      5  C   UNL     1      -3.629  -0.024 -31.119  1.00  0.00     0.005 C 
ENDBRANCH   3   4
ENDBRANCH   2   3
ENDBRANCH   1   2
BRANCH   1   6
ATOM      6  C   UNL     1      -9.760   0.988 -32.940  1.00  0.00     0.172 C 
BRANCH   6   7
ATOM      7  C   UNL     1     -10.474  -0.308 -32.534  1.00  0.00     0.321 C 
ATOM      8  O   UNL     1     -11.654  -0.555 -32.721  1.00  0.00    -0.251 OA
BRANCH   7   9
ATOM      9  O   UNL     1      -9.618  -1.162 -31.911  1.00  0.00    -0.480 OA
ATOM     10  H   UNL     1      -8.708  -0.852 -32.151  1.00  0.00     0.296 HD
ENDBRANCH   7   9
ENDBRANCH   6   7
BRANCH   6  11
ATOM     11  N   UNL     1     -10.790   2.077 -33.041  1.00  0.00    -0.318 NA
ATOM     12  H   UNL     1     -11.442   1.774 -33.777  1.00  0.00     0.119 HD
ATOM     13  H   UNL     1     -10.338   2.891 -33.475  1.00  0.00     0.119 HD
ENDBRANCH   6  11
ENDBRANCH   1   6
TORSDOF 7
ENDMDL
