MODEL 1
REMARK VINA RESULT:      -5.3      0.000      0.000
REMARK SMILES C=CCSC[C@H](N)C(=O)O
REMARK SMILES IDX 5 1 4 2 3 3 2 4 1 5 6 6 8 7 9 8 10 9 7 11
REMARK H PARENT 10 10 7 12 7 13
ROOT
ATOM      1  C   UNL     1       0.403 -10.606 -26.677  1.00  0.00     0.100 C 
ENDROOT
BRANCH   1   2
ATOM      2  S   UNL     1      -0.802  -9.233 -26.740  1.00  0.00    -0.156 SA
BRANCH   2   3
ATOM      3  C   UNL     1      -2.025 -10.004 -27.842  1.00  0.00     0.096 C 
BRANCH   3   4
ATOM      4  C   UNL     1      -3.235  -9.123 -27.914  1.00  0.00    -0.024 C 
ATOM      5  C   UNL     1      -4.434  -9.441 -27.408  1.00  0.00     0.005 C 
ENDBRANCH   3   4
ENDBRANCH   2   3
ENDBRANCH   1   2
BRANCH   1   6
ATOM      6  C   UNL     1       0.531 -11.175 -25.257  1.00  0.00     0.172 C 
BRANCH   6   7
ATOM      7  C   UNL     1       0.836 -12.677 -25.337  1.00  0.00     0.321 C 
ATOM      8  O   UNL     1       1.293 -13.255 -26.310  1.00  0.00    -0.251 OA
BRANCH   7   9
ATOM      9  O   UNL     1       0.510 -13.304 -24.176  1.00  0.00    -0.480 OA
ATOM     10  H   UNL     1      -0.430 -13.050 -23.987  1.00  0.00     0.296 HD
ENDBRANCH   7   9
ENDBRANCH   6   7
BRANCH   6  11
ATOM     11  N   UNL     1       1.608 -10.524 -24.439  1.00  0.00    -0.318 NA
ATOM     12  H   UNL     1       2.363 -11.220 -24.366  1.00  0.00     0.119 HD
ATOM     13  H   UNL     1       1.272 -10.469 -23.469  1.00  0.00     0.119 HD
ENDBRANCH   6  11
ENDBRANCH   1   6
TORSDOF 7
ENDMDL
MODEL 2
REMARK VINA RESULT:      -5.0      1.859      2.305
REMARK SMILES C=CCSC[C@H](N)C(=O)O
REMARK SMILES IDX 5 1 4 2 3 3 2 4 1 5 6 6 8 7 9 8 10 9 7 11
REMARK H PARENT 10 10 7 12 7 13
ROOT
ATOM      1  C   UNL     1      -1.708 -10.420 -27.289  1.00  0.00     0.100 C 
ENDROOT
BRANCH   1   2
ATOM      2  S   UNL     1      -2.597  -9.060 -28.129  1.00  0.00    -0.156 SA
BRANCH   2   3
ATOM      3  C   UNL     1      -3.978  -8.884 -26.960  1.00  0.00     0.096 C 
BRANCH   3   4
ATOM      4  C   UNL     1      -4.970  -9.977 -27.214  1.00  0.00    -0.024 C 
ATOM      5  C   UNL     1      -5.595 -10.670 -26.254  1.00  0.00     0.005 C 
ENDBRANCH   3   4
ENDBRANCH   2   3
ENDBRANCH   1   2
BRANCH   1   6
ATOM      6  C   UNL     1      -0.504  -9.895 -26.494  1.00  0.00     0.172 C 
BRANCH   6   7
ATOM      7  C   UNL     1       0.319 -11.083 -25.977  1.00  0.00     0.321 C 
ATOM      8  O   UNL     1       0.320 -12.205 -26.456  1.00  0.00    -0.251 OA
BRANCH   7   9
ATOM      9  O   UNL     1       1.049 -10.732 -24.885  1.00  0.00    -0.480 OA
ATOM     10  H   UNL     1       0.851  -9.773 -24.726  1.00  0.00     0.296 HD
ENDBRANCH   7   9
ENDBRANCH   6   7
BRANCH   6  11
ATOM     11  N   UNL     1       0.407  -9.008 -27.291  1.00  0.00    -0.318 NA
ATOM     12  H   UNL     1       0.633  -8.215 -26.675  1.00  0.00     0.119 HD
ATOM     13  H   UNL     1      -0.157  -8.559 -28.023  1.00  0.00     0.119 HD
ENDBRANCH   6  11
ENDBRANCH   1   6
TORSDOF 7
ENDMDL
MODEL 3
REMARK VINA RESULT:      -4.9      4.325      5.706
REMARK SMILES C=CCSC[C@H](N)C(=O)O
REMARK SMILES IDX 5 1 4 2 3 3 2 4 1 5 6 6 8 7 9 8 10 9 7 11
REMARK H PARENT 10 10 7 12 7 13
ROOT
ATOM      1  C   UNL     1      -3.664 -10.520 -27.092  1.00  0.00     0.100 C 
ENDROOT
BRANCH   1   2
ATOM      2  S   UNL     1      -2.654  -9.259 -27.950  1.00  0.00    -0.156 SA
BRANCH   2   3
ATOM      3  C   UNL     1      -1.509  -8.867 -26.593  1.00  0.00     0.096 C 
BRANCH   3   4
ATOM      4  C   UNL     1      -0.254  -9.665 -26.773  1.00  0.00    -0.024 C 
ATOM      5  C   UNL     1       0.282 -10.455 -25.833  1.00  0.00     0.005 C 
ENDBRANCH   3   4
ENDBRANCH   2   3
ENDBRANCH   1   2
BRANCH   1   6
ATOM      6  C   UNL     1      -5.161 -10.196 -27.183  1.00  0.00     0.172 C 
BRANCH   6   7
ATOM      7  C   UNL     1      -5.953 -11.219 -26.357  1.00  0.00     0.321 C 
ATOM      8  O   UNL     1      -5.928 -11.318 -25.141  1.00  0.00    -0.251 OA
BRANCH   7   9
ATOM      9  O   UNL     1      -6.688 -12.032 -27.162  1.00  0.00    -0.480 OA
ATOM     10  H   UNL     1      -6.153 -12.861 -27.267  1.00  0.00     0.296 HD
ENDBRANCH   7   9
ENDBRANCH   6   7
BRANCH   6  11
ATOM     11  N   UNL     1      -5.514  -8.823 -26.688  1.00  0.00    -0.318 NA
ATOM     12  H   UNL     1      -5.217  -8.797 -25.703  1.00  0.00     0.119 HD
ATOM     13  H   UNL     1      -6.537  -8.776 -26.606  1.00  0.00     0.119 HD
ENDBRANCH   6  11
ENDBRANCH   1   6
TORSDOF 7
ENDMDL
MODEL 4
REMARK VINA RESULT:      -4.7     15.108     15.900
REMARK SMILES C=CCSC[C@H](N)C(=O)O
REMARK SMILES IDX 5 1 4 2 3 3 2 4 1 5 6 6 8 7 9 8 10 9 7 11
REMARK H PARENT 10 10 7 12 7 13
ROOT
ATOM      1  C   UNL     1       7.967  -0.275 -18.312  1.00  0.00     0.100 C 
ENDROOT
BRANCH   1   2
ATOM      2  S   UNL     1       6.520  -1.369 -18.548  1.00  0.00    -0.156 SA
BRANCH   2   3
ATOM      3  C   UNL     1       7.173  -2.382 -19.909  1.00  0.00     0.096 C 
BRANCH   3   4
ATOM      4  C   UNL     1       6.027  -2.874 -20.739  1.00  0.00    -0.024 C 
ATOM      5  C   UNL     1       5.514  -2.215 -21.787  1.00  0.00     0.005 C 
ENDBRANCH   3   4
ENDBRANCH   2   3
ENDBRANCH   1   2
BRANCH   1   6
ATOM      6  C   UNL     1       7.975   0.349 -16.910  1.00  0.00     0.172 C 
BRANCH   6   7
ATOM      7  C   UNL     1       9.425   0.502 -16.431  1.00  0.00     0.321 C 
ATOM      8  O   UNL     1      10.198  -0.416 -16.210  1.00  0.00    -0.251 OA
BRANCH   7   9
ATOM      9  O   UNL     1       9.747   1.812 -16.262  1.00  0.00    -0.480 OA
ATOM     10  H   UNL     1       8.975   2.327 -16.615  1.00  0.00     0.296 HD
ENDBRANCH   7   9
ENDBRANCH   6   7
BRANCH   6  11
ATOM     11  N   UNL     1       7.317   1.697 -16.845  1.00  0.00    -0.318 NA
ATOM     12  H   UNL     1       7.725   2.167 -16.024  1.00  0.00     0.119 HD
ATOM     13  H   UNL     1       6.344   1.555 -16.549  1.00  0.00     0.119 HD
ENDBRANCH   6  11
ENDBRANCH   1   6
TORSDOF 7
ENDMDL
MODEL 5
REMARK VINA RESULT:      -4.5     11.420     12.386
REMARK SMILES C=CCSC[C@H](N)C(=O)O
REMARK SMILES IDX 5 1 4 2 3 3 2 4 1 5 6 6 8 7 9 8 10 9 7 11
REMARK H PARENT 10 10 7 12 7 13
ROOT
ATOM      1  C   UNL     1       5.214  -1.360 -24.232  1.00  0.00     0.100 C 
ENDROOT
BRANCH   1   2
ATOM      2  S   UNL     1       3.884  -2.335 -23.443  1.00  0.00    -0.156 SA
BRANCH   2   3
ATOM      3  C   UNL     1       4.869  -3.108 -22.124  1.00  0.00     0.096 C 
BRANCH   3   4
ATOM      4  C   UNL     1       5.720  -2.059 -21.477  1.00  0.00    -0.024 C 
ATOM      5  C   UNL     1       6.343  -2.210 -20.300  1.00  0.00     0.005 C 
ENDBRANCH   3   4
ENDBRANCH   2   3
ENDBRANCH   1   2
BRANCH   1   6
ATOM      6  C   UNL     1       4.643  -0.199 -25.058  1.00  0.00     0.172 C 
BRANCH   6   7
ATOM      7  C   UNL     1       5.250  -0.231 -26.467  1.00  0.00     0.321 C 
ATOM      8  O   UNL     1       4.843  -0.906 -27.398  1.00  0.00    -0.251 OA
BRANCH   7   9
ATOM      9  O   UNL     1       6.333   0.587 -26.550  1.00  0.00    -0.480 OA
ATOM     10  H   UNL     1       6.680   0.668 -25.625  1.00  0.00     0.296 HD
ENDBRANCH   7   9
ENDBRANCH   6   7
BRANCH   6  11
ATOM     11  N   UNL     1       3.148  -0.231 -25.194  1.00  0.00    -0.318 NA
ATOM     12  H   UNL     1       2.788   0.395 -24.461  1.00  0.00     0.119 HD
ATOM     13  H   UNL     1       2.826  -1.151 -24.868  1.00  0.00     0.119 HD
ENDBRANCH   6  11
ENDBRANCH   1   6
TORSDOF 7
ENDMDL
MODEL 6
REMARK VINA RESULT:      -4.4     15.201     16.032
REMARK SMILES C=CCSC[C@H](N)C(=O)O
REMARK SMILES IDX 5 1 4 2 3 3 2 4 1 5 6 6 8 7 9 8 10 9 7 11
REMARK H PARENT 10 10 7 12 7 13
ROOT
ATOM      1  C   UNL     1      -9.236  -1.158 -31.806  1.00  0.00     0.100 C 
ENDROOT
BRANCH   1   2
ATOM      2  S   UNL     1      -7.528  -1.010 -31.169  1.00  0.00    -0.156 SA
BRANCH   2   3
ATOM      3  C   UNL     1      -7.408   0.803 -31.149  1.00  0.00     0.096 C 
BRANCH   3   4
ATOM      4  C   UNL     1      -6.619   1.250 -32.342  1.00  0.00    -0.024 C 
ATOM      5  C   UNL     1      -7.111   1.343 -33.584  1.00  0.00     0.005 C 
ENDBRANCH   3   4
ENDBRANCH   2   3
ENDBRANCH   1   2
BRANCH   1   6
ATOM      6  C   UNL     1     -10.016   0.151 -31.626  1.00  0.00     0.172 C 
BRANCH   6   7
ATOM      7  C   UNL     1     -10.623   0.569 -32.972  1.00  0.00     0.321 C 
ATOM      8  O   UNL     1     -10.800  -0.168 -33.928  1.00  0.00    -0.251 OA
BRANCH   7   9
ATOM      9  O   UNL     1     -10.930   1.893 -32.978  1.00  0.00    -0.480 OA
ATOM     10  H   UNL     1     -11.561   2.027 -32.224  1.00  0.00     0.296 HD
ENDBRANCH   7   9
ENDBRANCH   6   7
BRANCH   6  11
ATOM     11  N   UNL     1     -11.128   0.059 -30.621  1.00  0.00    -0.318 NA
ATOM     12  H   UNL     1     -11.984   0.329 -31.127  1.00  0.00     0.119 HD
ATOM     13  H   UNL     1     -11.015   0.837 -29.959  1.00  0.00     0.119 HD
ENDBRANCH   6  11
ENDBRANCH   1   6
TORSDOF 7
ENDMDL
MODEL 7
REMARK VINA RESULT:      -4.3     13.911     15.559
REMARK SMILES C=CCSC[C@H](N)C(=O)O
REMARK SMILES IDX 5 1 4 2 3 3 2 4 1 5 6 6 8 7 9 8 10 9 7 11
REMARK H PARENT 10 10 7 12 7 13
ROOT
ATOM      1  C   UNL     1      -8.584  -0.788 -32.530  1.00  0.00     0.100 C 
ENDROOT
BRANCH   1   2
ATOM      2  S   UNL     1      -8.514  -0.424 -30.739  1.00  0.00    -0.156 SA
BRANCH   2   3
ATOM      3  C   UNL     1      -9.511  -1.823 -30.144  1.00  0.00     0.096 C 
BRANCH   3   4
ATOM      4  C   UNL     1      -9.061  -3.069 -30.843  1.00  0.00    -0.024 C 
ATOM      5  C   UNL     1      -8.193  -3.952 -30.333  1.00  0.00     0.005 C 
ENDBRANCH   3   4
ENDBRANCH   2   3
ENDBRANCH   1   2
BRANCH   1   6
ATOM      6  C   UNL     1      -9.078   0.426 -33.330  1.00  0.00     0.172 C 
BRANCH   6   7
ATOM      7  C   UNL     1     -10.580   0.619 -33.084  1.00  0.00     0.321 C 
ATOM      8  O   UNL     1     -11.403  -0.277 -32.991  1.00  0.00    -0.251 OA
BRANCH   7   9
ATOM      9  O   UNL     1     -10.895   1.938 -32.999  1.00  0.00    -0.480 OA
ATOM     10  H   UNL     1     -10.030   2.423 -33.018  1.00  0.00     0.296 HD
ENDBRANCH   7   9
ENDBRANCH   6   7
BRANCH   6  11
ATOM     11  N   UNL     1      -8.379   1.707 -32.978  1.00  0.00    -0.318 NA
ATOM     12  H   UNL     1      -8.082   2.118 -33.874  1.00  0.00     0.119 HD
ATOM     13  H   UNL     1      -7.480   1.463 -32.545  1.00  0.00     0.119 HD
ENDBRANCH   6  11
ENDBRANCH   1   6
TORSDOF 7
ENDMDL
MODEL 8
REMARK VINA RESULT:      -4.3     12.632     13.890
REMARK SMILES C=CCSC[C@H](N)C(=O)O
REMARK SMILES IDX 5 1 4 2 3 3 2 4 1 5 6 6 8 7 9 8 10 9 7 11
REMARK H PARENT 10 10 7 12 7 13
ROOT
ATOM      1  C   UNL     1      -5.839   0.282 -31.404  1.00  0.00     0.100 C 
ENDROOT
BRANCH   1   2
ATOM      2  S   UNL     1      -6.961   1.608 -31.977  1.00  0.00    -0.156 SA
BRANCH   2   3
ATOM      3  C   UNL     1      -7.818   0.682 -33.286  1.00  0.00     0.096 C 
BRANCH   3   4
ATOM      4  C   UNL     1      -9.284   0.981 -33.211  1.00  0.00    -0.024 C 
ATOM      5  C   UNL     1     -10.244   0.191 -33.710  1.00  0.00     0.005 C 
ENDBRANCH   3   4
ENDBRANCH   2   3
ENDBRANCH   1   2
BRANCH   1   6
ATOM      6  C   UNL     1      -4.407   0.803 -31.215  1.00  0.00     0.172 C 
BRANCH   6   7
ATOM      7  C   UNL     1      -3.485  -0.368 -30.848  1.00  0.00     0.321 C 
ATOM      8  O   UNL     1      -3.349  -0.838 -29.731  1.00  0.00    -0.251 OA
BRANCH   7   9
ATOM      9  O   UNL     1      -2.810  -0.817 -31.939  1.00  0.00    -0.480 OA
ATOM     10  H   UNL     1      -3.062  -0.208 -32.681  1.00  0.00     0.296 HD
ENDBRANCH   7   9
ENDBRANCH   6   7
BRANCH   6  11
ATOM     11  N   UNL     1      -3.843   1.478 -32.432  1.00  0.00    -0.318 NA
ATOM     12  H   UNL     1      -3.553   0.717 -33.063  1.00  0.00     0.119 HD
ATOM     13  H   UNL     1      -2.942   1.894 -32.168  1.00  0.00     0.119 HD
ENDBRANCH   6  11
ENDBRANCH   1   6
TORSDOF 7
ENDMDL
MODEL 9
REMARK VINA RESULT:      -4.3      3.397      5.239
REMARK SMILES C=CCSC[C@H](N)C(=O)O
REMARK SMILES IDX 5 1 4 2 3 3 2 4 1 5 6 6 8 7 9 8 10 9 7 11
REMARK H PARENT 10 10 7 12 7 13
ROOT
ATOM      1  C   UNL     1      -1.283 -11.282 -27.451  1.00  0.00     0.100 C 
ENDROOT
BRANCH   1   2
ATOM      2  S   UNL     1      -0.021 -10.907 -26.181  1.00  0.00    -0.156 SA
BRANCH   2   3
ATOM      3  C   UNL     1       0.641 -12.586 -25.961  1.00  0.00     0.096 C 
BRANCH   3   4
ATOM      4  C   UNL     1       1.100 -12.743 -24.544  1.00  0.00    -0.024 C 
ATOM      5  C   UNL     1       0.697 -13.720 -23.722  1.00  0.00     0.005 C 
ENDBRANCH   3   4
ENDBRANCH   2   3
ENDBRANCH   1   2
BRANCH   1   6
ATOM      6  C   UNL     1      -1.918  -9.999 -28.006  1.00  0.00     0.172 C 
BRANCH   6   7
ATOM      7  C   UNL     1      -3.291  -9.789 -27.354  1.00  0.00     0.321 C 
ATOM      8  O   UNL     1      -4.238 -10.554 -27.436  1.00  0.00    -0.251 OA
BRANCH   7   9
ATOM      9  O   UNL     1      -3.333  -8.614 -26.673  1.00  0.00    -0.480 OA
ATOM     10  H   UNL     1      -3.852  -7.990 -27.244  1.00  0.00     0.296 HD
ENDBRANCH   7   9
ENDBRANCH   6   7
BRANCH   6  11
ATOM     11  N   UNL     1      -1.095  -8.766 -27.769  1.00  0.00    -0.318 NA
ATOM     12  H   UNL     1      -0.418  -8.729 -28.544  1.00  0.00     0.119 HD
ATOM     13  H   UNL     1      -0.487  -8.947 -26.961  1.00  0.00     0.119 HD
ENDBRANCH   6  11
ENDBRANCH   1   6
TORSDOF 7
ENDMDL
MODEL 10
REMARK VINA RESULT:      -4.3     13.843     15.455
REMARK SMILES C=CCSC[C@H](N)C(=O)O
REMARK SMILES IDX 5 1 4 2 3 3 2 4 1 5 6 6 8 7 9 8 10 9 7 11
REMARK H PARENT 10 10 7 12 7 13
ROOT
ATOM      1  C   UNL     1      -8.558  -0.564 -32.136  1.00  0.00     0.100 C 
ENDROOT
BRANCH   1   2
ATOM      2  S   UNL     1      -6.945  -0.017 -31.470  1.00  0.00    -0.156 SA
BRANCH   2   3
ATOM      3  C   UNL     1      -6.593  -1.453 -30.412  1.00  0.00     0.096 C 
BRANCH   3   4
ATOM      4  C   UNL     1      -5.374  -1.164 -29.592  1.00  0.00    -0.024 C 
ATOM      5  C   UNL     1      -4.175  -1.726 -29.793  1.00  0.00     0.005 C 
ENDBRANCH   3   4
ENDBRANCH   2   3
ENDBRANCH   1   2
BRANCH   1   6
ATOM      6  C   UNL     1      -9.077   0.402 -33.210  1.00  0.00     0.172 C 
BRANCH   6   7
ATOM      7  C   UNL     1     -10.590   0.592 -33.032  1.00  0.00     0.321 C 
ATOM      8  O   UNL     1     -11.411  -0.306 -32.954  1.00  0.00    -0.251 OA
BRANCH   7   9
ATOM      9  O   UNL     1     -10.914   1.912 -32.991  1.00  0.00    -0.480 OA
ATOM     10  H   UNL     1     -11.895   1.943 -32.844  1.00  0.00     0.296 HD
ENDBRANCH   7   9
ENDBRANCH   6   7
BRANCH   6  11
ATOM     11  N   UNL     1      -8.429   1.756 -33.170  1.00  0.00    -0.318 NA
ATOM     12  H   UNL     1      -8.913   2.317 -33.884  1.00  0.00     0.119 HD
ATOM     13  H   UNL     1      -7.488   1.662 -33.572  1.00  0.00     0.119 HD
ENDBRANCH   6  11
ENDBRANCH   1   6
TORSDOF 7
ENDMDL
