MODEL 1
REMARK VINA RESULT:      -7.4      0.000      0.000
REMARK SMILES O=C(O)/C=C/c1cccc(O)c1
REMARK SMILES IDX 5 1 4 2 6 3 8 4 7 5 9 6 10 7 12 8 11 9 2 11 1 12 3 13
REMARK H PARENT 11 10 3 14
ROOT
ATOM      1  C   UNL     1       5.216  -2.682 -22.123  1.00  0.00     0.016 C 
ATOM      2  C   UNL     1       6.009  -2.083 -21.220  1.00  0.00     0.094 C 
ENDROOT
BRANCH   1   3
ATOM      3  C   UNL     1       4.649  -1.984 -23.282  1.00  0.00    -0.022 A 
ATOM      4  C   UNL     1       2.680  -1.303 -24.533  1.00  0.00     0.004 A 
ATOM      5  C   UNL     1       3.256  -1.946 -23.433  1.00  0.00     0.008 A 
ATOM      6  C   UNL     1       3.493  -0.708 -25.494  1.00  0.00     0.046 A 
ATOM      7  C   UNL     1       4.873  -0.764 -25.356  1.00  0.00     0.116 A 
ATOM      8  C   UNL     1       5.461  -1.398 -24.263  1.00  0.00     0.054 A 
BRANCH   7   9
ATOM      9  O   UNL     1       5.630  -0.182 -26.332  1.00  0.00    -0.508 OA
ATOM     10  H   UNL     1       5.671  -0.779 -27.097  1.00  0.00     0.293 HD
ENDBRANCH   7   9
ENDBRANCH   1   3
BRANCH   2  11
ATOM     11  C   UNL     1       6.518  -2.866 -20.077  1.00  0.00     0.328 C 
ATOM     12  O   UNL     1       5.864  -3.676 -19.444  1.00  0.00    -0.247 OA
BRANCH  11  13
ATOM     13  O   UNL     1       7.808  -2.586 -19.807  1.00  0.00    -0.478 OA
ATOM     14  H   UNL     1       8.108  -1.694 -20.062  1.00  0.00     0.297 HD
ENDBRANCH  11  13
ENDBRANCH   2  11
TORSDOF 4
ENDMDL
MODEL 2
REMARK VINA RESULT:      -6.7      2.695      6.357
REMARK SMILES O=C(O)/C=C/c1cccc(O)c1
REMARK SMILES IDX 5 1 4 2 6 3 8 4 7 5 9 6 10 7 12 8 11 9 2 11 1 12 3 13
REMARK H PARENT 11 10 3 14
ROOT
ATOM      1  C   UNL     1       6.076  -2.384 -20.774  1.00  0.00     0.016 C 
ATOM      2  C   UNL     1       5.374  -1.656 -21.657  1.00  0.00     0.094 C 
ENDROOT
BRANCH   1   3
ATOM      3  C   UNL     1       6.609  -1.833 -19.523  1.00  0.00    -0.022 A 
ATOM      4  C   UNL     1       8.346  -0.569 -18.387  1.00  0.00     0.004 A 
ATOM      5  C   UNL     1       7.800  -1.097 -19.561  1.00  0.00     0.008 A 
ATOM      6  C   UNL     1       7.712  -0.788 -17.166  1.00  0.00     0.046 A 
ATOM      7  C   UNL     1       6.543  -1.536 -17.124  1.00  0.00     0.116 A 
ATOM      8  C   UNL     1       5.985  -2.064 -18.288  1.00  0.00     0.054 A 
BRANCH   7   9
ATOM      9  O   UNL     1       5.966  -1.739 -15.905  1.00  0.00    -0.508 OA
ATOM     10  H   UNL     1       5.689  -2.668 -15.838  1.00  0.00     0.293 HD
ENDBRANCH   7   9
ENDBRANCH   1   3
BRANCH   2  11
ATOM     11  C   UNL     1       4.893  -2.296 -22.897  1.00  0.00     0.328 C 
ATOM     12  O   UNL     1       4.202  -3.298 -22.938  1.00  0.00    -0.247 OA
BRANCH  11  13
ATOM     13  O   UNL     1       5.307  -1.638 -23.998  1.00  0.00    -0.478 OA
ATOM     14  H   UNL     1       5.059  -2.043 -24.849  1.00  0.00     0.297 HD
ENDBRANCH  11  13
ENDBRANCH   2  11
TORSDOF 4
ENDMDL
MODEL 3
REMARK VINA RESULT:      -6.6      2.853      4.295
REMARK SMILES O=C(O)/C=C/c1cccc(O)c1
REMARK SMILES IDX 5 1 4 2 6 3 8 4 7 5 9 6 10 7 12 8 11 9 2 11 1 12 3 13
REMARK H PARENT 11 10 3 14
ROOT
ATOM      1  C   UNL     1       4.578  -0.960 -25.403  1.00  0.00     0.016 C 
ATOM      2  C   UNL     1       5.113  -1.430 -24.264  1.00  0.00     0.094 C 
ENDROOT
BRANCH   1   3
ATOM      3  C   UNL     1       5.341  -0.189 -26.390  1.00  0.00    -0.022 A 
ATOM      4  C   UNL     1       7.046   1.480 -26.850  1.00  0.00     0.004 A 
ATOM      5  C   UNL     1       6.310   0.717 -25.939  1.00  0.00     0.008 A 
ATOM      6  C   UNL     1       6.807   1.354 -28.216  1.00  0.00     0.046 A 
ATOM      7  C   UNL     1       5.832   0.472 -28.663  1.00  0.00     0.116 A 
ATOM      8  C   UNL     1       5.094  -0.298 -27.767  1.00  0.00     0.054 A 
BRANCH   7   9
ATOM      9  O   UNL     1       5.620   0.394 -30.009  1.00  0.00    -0.508 OA
ATOM     10  H   UNL     1       5.900  -0.482 -30.322  1.00  0.00     0.293 HD
ENDBRANCH   7   9
ENDBRANCH   1   3
BRANCH   2  11
ATOM     11  C   UNL     1       4.260  -2.182 -23.324  1.00  0.00     0.328 C 
ATOM     12  O   UNL     1       4.673  -2.954 -22.477  1.00  0.00    -0.247 OA
BRANCH  11  13
ATOM     13  O   UNL     1       2.952  -1.916 -23.506  1.00  0.00    -0.478 OA
ATOM     14  H   UNL     1       2.546  -2.315 -24.297  1.00  0.00     0.297 HD
ENDBRANCH  11  13
ENDBRANCH   2  11
TORSDOF 4
ENDMDL
MODEL 4
REMARK VINA RESULT:      -6.5      2.605      6.084
REMARK SMILES O=C(O)/C=C/c1cccc(O)c1
REMARK SMILES IDX 5 1 4 2 6 3 8 4 7 5 9 6 10 7 12 8 11 9 2 11 1 12 3 13
REMARK H PARENT 11 10 3 14
ROOT
ATOM      1  C   UNL     1       6.096  -2.413 -20.853  1.00  0.00     0.016 C 
ATOM      2  C   UNL     1       5.293  -1.684 -21.645  1.00  0.00     0.094 C 
ENDROOT
BRANCH   1   3
ATOM      3  C   UNL     1       6.500  -1.987 -19.509  1.00  0.00    -0.022 A 
ATOM      4  C   UNL     1       6.286  -2.240 -17.102  1.00  0.00     0.004 A 
ATOM      5  C   UNL     1       5.937  -2.629 -18.398  1.00  0.00     0.008 A 
ATOM      6  C   UNL     1       7.189  -1.198 -16.908  1.00  0.00     0.046 A 
ATOM      7  C   UNL     1       7.732  -0.547 -18.008  1.00  0.00     0.116 A 
ATOM      8  C   UNL     1       7.396  -0.927 -19.307  1.00  0.00     0.054 A 
BRANCH   7   9
ATOM      9  O   UNL     1       8.599   0.480 -17.771  1.00  0.00    -0.508 OA
ATOM     10  H   UNL     1       9.209   0.558 -18.523  1.00  0.00     0.293 HD
ENDBRANCH   7   9
ENDBRANCH   1   3
BRANCH   2  11
ATOM     11  C   UNL     1       4.956  -2.190 -22.990  1.00  0.00     0.328 C 
ATOM     12  O   UNL     1       5.330  -1.687 -24.035  1.00  0.00    -0.247 OA
BRANCH  11  13
ATOM     13  O   UNL     1       4.178  -3.289 -22.936  1.00  0.00    -0.478 OA
ATOM     14  H   UNL     1       4.502  -4.060 -23.435  1.00  0.00     0.297 HD
ENDBRANCH  11  13
ENDBRANCH   2  11
TORSDOF 4
ENDMDL
MODEL 5
REMARK VINA RESULT:      -6.4      2.045      5.785
REMARK SMILES O=C(O)/C=C/c1cccc(O)c1
REMARK SMILES IDX 5 1 4 2 6 3 8 4 7 5 9 6 10 7 12 8 11 9 2 11 1 12 3 13
REMARK H PARENT 11 10 3 14
ROOT
ATOM      1  C   UNL     1       5.535   0.078 -26.132  1.00  0.00     0.016 C 
ATOM      2  C   UNL     1       5.302   0.018 -27.454  1.00  0.00     0.094 C 
ENDROOT
BRANCH   1   3
ATOM      3  C   UNL     1       4.765  -0.687 -25.146  1.00  0.00    -0.022 A 
ATOM      4  C   UNL     1       2.598  -1.356 -24.273  1.00  0.00     0.004 A 
ATOM      5  C   UNL     1       3.365  -0.652 -25.205  1.00  0.00     0.008 A 
ATOM      6  C   UNL     1       3.225  -2.088 -23.267  1.00  0.00     0.046 A 
ATOM      7  C   UNL     1       4.612  -2.106 -23.194  1.00  0.00     0.116 A 
ATOM      8  C   UNL     1       5.389  -1.412 -24.120  1.00  0.00     0.054 A 
BRANCH   7   9
ATOM      9  O   UNL     1       5.182  -2.821 -22.182  1.00  0.00    -0.508 OA
ATOM     10  H   UNL     1       5.023  -2.360 -21.342  1.00  0.00     0.293 HD
ENDBRANCH   7   9
ENDBRANCH   1   3
BRANCH   2  11
ATOM     11  C   UNL     1       6.120   0.840 -28.367  1.00  0.00     0.328 C 
ATOM     12  O   UNL     1       5.969   0.895 -29.574  1.00  0.00    -0.247 OA
BRANCH  11  13
ATOM     13  O   UNL     1       7.067   1.536 -27.708  1.00  0.00    -0.478 OA
ATOM     14  H   UNL     1       7.249   2.430 -28.052  1.00  0.00     0.297 HD
ENDBRANCH  11  13
ENDBRANCH   2  11
TORSDOF 4
ENDMDL
MODEL 6
REMARK VINA RESULT:      -6.1     13.494     16.485
REMARK SMILES O=C(O)/C=C/c1cccc(O)c1
REMARK SMILES IDX 5 1 4 2 6 3 8 4 7 5 9 6 10 7 12 8 11 9 2 11 1 12 3 13
REMARK H PARENT 11 10 3 14
ROOT
ATOM      1  C   UNL     1      -8.571   1.700 -31.916  1.00  0.00     0.016 C 
ATOM      2  C   UNL     1      -8.919   0.846 -32.892  1.00  0.00     0.094 C 
ENDROOT
BRANCH   1   3
ATOM      3  C   UNL     1      -7.200   1.824 -31.409  1.00  0.00    -0.022 A 
ATOM      4  C   UNL     1      -5.703   2.533 -29.631  1.00  0.00     0.004 A 
ATOM      5  C   UNL     1      -6.996   2.385 -30.141  1.00  0.00     0.008 A 
ATOM      6  C   UNL     1      -4.606   2.135 -30.391  1.00  0.00     0.046 A 
ATOM      7  C   UNL     1      -4.806   1.599 -31.657  1.00  0.00     0.116 A 
ATOM      8  C   UNL     1      -6.090   1.442 -32.176  1.00  0.00     0.054 A 
BRANCH   7   9
ATOM      9  O   UNL     1      -3.701   1.239 -32.372  1.00  0.00    -0.508 OA
ATOM     10  H   UNL     1      -2.908   1.552 -31.906  1.00  0.00     0.293 HD
ENDBRANCH   7   9
ENDBRANCH   1   3
BRANCH   2  11
ATOM     11  C   UNL     1     -10.329   0.782 -33.323  1.00  0.00     0.328 C 
ATOM     12  O   UNL     1     -10.844  -0.176 -33.872  1.00  0.00    -0.247 OA
BRANCH  11  13
ATOM     13  O   UNL     1     -10.997   1.916 -33.037  1.00  0.00    -0.478 OA
ATOM     14  H   UNL     1     -10.765   2.341 -32.191  1.00  0.00     0.297 HD
ENDBRANCH  11  13
ENDBRANCH   2  11
TORSDOF 4
ENDMDL
MODEL 7
REMARK VINA RESULT:      -5.9      9.616     10.789
REMARK SMILES O=C(O)/C=C/c1cccc(O)c1
REMARK SMILES IDX 5 1 4 2 6 3 8 4 7 5 9 6 10 7 12 8 11 9 2 11 1 12 3 13
REMARK H PARENT 11 10 3 14
ROOT
ATOM      1  C   UNL     1      -5.414  -1.248 -26.018  1.00  0.00     0.016 C 
ATOM      2  C   UNL     1      -5.622  -0.476 -24.939  1.00  0.00     0.094 C 
ENDROOT
BRANCH   1   3
ATOM      3  C   UNL     1      -4.401  -0.950 -27.036  1.00  0.00    -0.022 A 
ATOM      4  C   UNL     1      -3.369  -1.514 -29.162  1.00  0.00     0.004 A 
ATOM      5  C   UNL     1      -4.332  -1.758 -28.179  1.00  0.00     0.008 A 
ATOM      6  C   UNL     1      -2.461  -0.471 -29.003  1.00  0.00     0.046 A 
ATOM      7  C   UNL     1      -2.515   0.318 -27.861  1.00  0.00     0.116 A 
ATOM      8  C   UNL     1      -3.472   0.089 -26.874  1.00  0.00     0.054 A 
BRANCH   7   9
ATOM      9  O   UNL     1      -1.595   1.318 -27.740  1.00  0.00    -0.508 OA
ATOM     10  H   UNL     1      -1.840   2.046 -28.335  1.00  0.00     0.293 HD
ENDBRANCH   7   9
ENDBRANCH   1   3
BRANCH   2  11
ATOM     11  C   UNL     1      -6.678  -0.849 -23.979  1.00  0.00     0.328 C 
ATOM     12  O   UNL     1      -7.551  -0.099 -23.579  1.00  0.00    -0.247 OA
BRANCH  11  13
ATOM     13  O   UNL     1      -6.572  -2.134 -23.587  1.00  0.00    -0.478 OA
ATOM     14  H   UNL     1      -6.257  -2.273 -22.675  1.00  0.00     0.297 HD
ENDBRANCH  11  13
ENDBRANCH   2  11
TORSDOF 4
ENDMDL
MODEL 8
REMARK VINA RESULT:      -5.9     13.344     16.309
REMARK SMILES O=C(O)/C=C/c1cccc(O)c1
REMARK SMILES IDX 5 1 4 2 6 3 8 4 7 5 9 6 10 7 12 8 11 9 2 11 1 12 3 13
REMARK H PARENT 11 10 3 14
ROOT
ATOM      1  C   UNL     1      -8.474   0.539 -31.718  1.00  0.00     0.016 C 
ATOM      2  C   UNL     1      -9.042   0.605 -32.934  1.00  0.00     0.094 C 
ENDROOT
BRANCH   1   3
ATOM      3  C   UNL     1      -7.033   0.353 -31.514  1.00  0.00    -0.022 A 
ATOM      4  C   UNL     1      -5.236  -0.788 -30.343  1.00  0.00     0.004 A 
ATOM      5  C   UNL     1      -6.600  -0.593 -30.576  1.00  0.00     0.008 A 
ATOM      6  C   UNL     1      -4.297  -0.029 -31.037  1.00  0.00     0.046 A 
ATOM      7  C   UNL     1      -4.725   0.924 -31.953  1.00  0.00     0.116 A 
ATOM      8  C   UNL     1      -6.082   1.126 -32.197  1.00  0.00     0.054 A 
BRANCH   7   9
ATOM      9  O   UNL     1      -3.771   1.656 -32.596  1.00  0.00    -0.508 OA
ATOM     10  H   UNL     1      -2.924   1.183 -32.547  1.00  0.00     0.293 HD
ENDBRANCH   7   9
ENDBRANCH   1   3
BRANCH   2  11
ATOM     11  C   UNL     1     -10.504   0.778 -33.037  1.00  0.00     0.328 C 
ATOM     12  O   UNL     1     -11.310  -0.135 -33.079  1.00  0.00    -0.247 OA
BRANCH  11  13
ATOM     13  O   UNL     1     -10.857   2.078 -33.076  1.00  0.00    -0.478 OA
ATOM     14  H   UNL     1     -10.132   2.707 -33.247  1.00  0.00     0.297 HD
ENDBRANCH  11  13
ENDBRANCH   2  11
TORSDOF 4
ENDMDL
MODEL 9
REMARK VINA RESULT:      -5.9     11.712     13.008
REMARK SMILES O=C(O)/C=C/c1cccc(O)c1
REMARK SMILES IDX 5 1 4 2 6 3 8 4 7 5 9 6 10 7 12 8 11 9 2 11 1 12 3 13
REMARK H PARENT 11 10 3 14
ROOT
ATOM      1  C   UNL     1      -3.660 -10.096 -27.503  1.00  0.00     0.016 C 
ATOM      2  C   UNL     1      -4.461 -10.754 -26.650  1.00  0.00     0.094 C 
ENDROOT
BRANCH   1   3
ATOM      3  C   UNL     1      -2.217  -9.937 -27.290  1.00  0.00    -0.022 A 
ATOM      4  C   UNL     1      -0.277  -8.475 -27.249  1.00  0.00     0.004 A 
ATOM      5  C   UNL     1      -1.650  -8.663 -27.430  1.00  0.00     0.008 A 
ATOM      6  C   UNL     1       0.539  -9.561 -26.941  1.00  0.00     0.046 A 
ATOM      7  C   UNL     1      -0.019 -10.828 -26.823  1.00  0.00     0.116 A 
ATOM      8  C   UNL     1      -1.387 -11.029 -26.997  1.00  0.00     0.054 A 
BRANCH   7   9
ATOM      9  O   UNL     1       0.821 -11.864 -26.538  1.00  0.00    -0.508 OA
ATOM     10  H   UNL     1       1.703 -11.509 -26.338  1.00  0.00     0.293 HD
ENDBRANCH   7   9
ENDBRANCH   1   3
BRANCH   2  11
ATOM     11  C   UNL     1      -5.904 -10.847 -26.943  1.00  0.00     0.328 C 
ATOM     12  O   UNL     1      -6.599 -11.821 -26.710  1.00  0.00    -0.247 OA
BRANCH  11  13
ATOM     13  O   UNL     1      -6.379  -9.718 -27.504  1.00  0.00    -0.478 OA
ATOM     14  H   UNL     1      -6.857  -9.117 -26.904  1.00  0.00     0.297 HD
ENDBRANCH  11  13
ENDBRANCH   2  11
TORSDOF 4
ENDMDL
MODEL 10
REMARK VINA RESULT:      -5.9     10.135     10.852
REMARK SMILES O=C(O)/C=C/c1cccc(O)c1
REMARK SMILES IDX 5 1 4 2 6 3 8 4 7 5 9 6 10 7 12 8 11 9 2 11 1 12 3 13
REMARK H PARENT 11 10 3 14
ROOT
ATOM      1  C   UNL     1      -4.727  -0.182 -25.923  1.00  0.00     0.016 C 
ATOM      2  C   UNL     1      -5.590  -1.154 -25.585  1.00  0.00     0.094 C 
ENDROOT
BRANCH   1   3
ATOM      3  C   UNL     1      -3.903  -0.226 -27.136  1.00  0.00    -0.022 A 
ATOM      4  C   UNL     1      -2.060   0.693 -28.424  1.00  0.00     0.004 A 
ATOM      5  C   UNL     1      -2.856   0.695 -27.276  1.00  0.00     0.008 A 
ATOM      6  C   UNL     1      -2.314  -0.219 -29.446  1.00  0.00     0.046 A 
ATOM      7  C   UNL     1      -3.364  -1.118 -29.317  1.00  0.00     0.116 A 
ATOM      8  C   UNL     1      -4.164  -1.131 -28.176  1.00  0.00     0.054 A 
BRANCH   7   9
ATOM      9  O   UNL     1      -3.587  -1.981 -30.350  1.00  0.00    -0.508 OA
ATOM     10  H   UNL     1      -4.228  -2.654 -30.066  1.00  0.00     0.293 HD
ENDBRANCH   7   9
ENDBRANCH   1   3
BRANCH   2  11
ATOM     11  C   UNL     1      -6.363  -1.027 -24.334  1.00  0.00     0.328 C 
ATOM     12  O   UNL     1      -6.857   0.009 -23.926  1.00  0.00    -0.247 OA
BRANCH  11  13
ATOM     13  O   UNL     1      -6.467  -2.203 -23.683  1.00  0.00    -0.478 OA
ATOM     14  H   UNL     1      -5.840  -2.336 -22.950  1.00  0.00     0.297 HD
ENDBRANCH  11  13
ENDBRANCH   2  11
TORSDOF 4
ENDMDL
