MODEL 1
REMARK VINA RESULT:      -7.4      0.000      0.000
REMARK SMILES O=C(O)/C=C/c1cccc(O)c1
REMARK SMILES IDX 5 1 4 2 6 3 8 4 7 5 9 6 10 7 12 8 11 9 2 11 1 12 3 13
REMARK H PARENT 11 10 3 14
ROOT
ATOM      1  C   UNL     1       5.221  -2.686 -22.124  1.00  0.00     0.016 C 
ATOM      2  C   UNL     1       6.005  -2.084 -21.215  1.00  0.00     0.094 C 
ENDROOT
BRANCH   1   3
ATOM      3  C   UNL     1       4.649  -1.987 -23.280  1.00  0.00    -0.022 A 
ATOM      4  C   UNL     1       2.675  -1.305 -24.522  1.00  0.00     0.004 A 
ATOM      5  C   UNL     1       3.256  -1.948 -23.426  1.00  0.00     0.008 A 
ATOM      6  C   UNL     1       3.484  -0.709 -25.487  1.00  0.00     0.046 A 
ATOM      7  C   UNL     1       4.865  -0.765 -25.355  1.00  0.00     0.116 A 
ATOM      8  C   UNL     1       5.458  -1.400 -24.265  1.00  0.00     0.054 A 
BRANCH   7   9
ATOM      9  O   UNL     1       5.618  -0.183 -26.333  1.00  0.00    -0.508 OA
ATOM     10  H   UNL     1       5.492   0.779 -26.296  1.00  0.00     0.293 HD
ENDBRANCH   7   9
ENDBRANCH   1   3
BRANCH   2  11
ATOM     11  C   UNL     1       6.520  -2.868 -20.076  1.00  0.00     0.328 C 
ATOM     12  O   UNL     1       5.868  -3.677 -19.439  1.00  0.00    -0.247 OA
BRANCH  11  13
ATOM     13  O   UNL     1       7.812  -2.590 -19.814  1.00  0.00    -0.478 OA
ATOM     14  H   UNL     1       8.207  -3.083 -19.072  1.00  0.00     0.297 HD
ENDBRANCH  11  13
ENDBRANCH   2  11
TORSDOF 4
ENDMDL
MODEL 2
REMARK VINA RESULT:      -6.7      2.695      6.357
REMARK SMILES O=C(O)/C=C/c1cccc(O)c1
REMARK SMILES IDX 5 1 4 2 6 3 8 4 7 5 9 6 10 7 12 8 11 9 2 11 1 12 3 13
REMARK H PARENT 11 10 3 14
ROOT
ATOM      1  C   UNL     1       6.082  -2.386 -20.775  1.00  0.00     0.016 C 
ATOM      2  C   UNL     1       5.364  -1.663 -21.650  1.00  0.00     0.094 C 
ENDROOT
BRANCH   1   3
ATOM      3  C   UNL     1       6.609  -1.836 -19.521  1.00  0.00    -0.022 A 
ATOM      4  C   UNL     1       8.339  -0.570 -18.378  1.00  0.00     0.004 A 
ATOM      5  C   UNL     1       7.798  -1.097 -19.554  1.00  0.00     0.008 A 
ATOM      6  C   UNL     1       7.702  -0.792 -17.159  1.00  0.00     0.046 A 
ATOM      7  C   UNL     1       6.534  -1.543 -17.123  1.00  0.00     0.116 A 
ATOM      8  C   UNL     1       5.982  -2.071 -18.288  1.00  0.00     0.054 A 
BRANCH   7   9
ATOM      9  O   UNL     1       5.954  -1.750 -15.905  1.00  0.00    -0.508 OA
ATOM     10  H   UNL     1       6.129  -0.981 -15.338  1.00  0.00     0.293 HD
ENDBRANCH   7   9
ENDBRANCH   1   3
BRANCH   2  11
ATOM     11  C   UNL     1       4.890  -2.301 -22.893  1.00  0.00     0.328 C 
ATOM     12  O   UNL     1       4.200  -3.304 -22.940  1.00  0.00    -0.247 OA
BRANCH  11  13
ATOM     13  O   UNL     1       5.309  -1.641 -23.991  1.00  0.00    -0.478 OA
ATOM     14  H   UNL     1       5.192  -2.111 -24.836  1.00  0.00     0.297 HD
ENDBRANCH  11  13
ENDBRANCH   2  11
TORSDOF 4
ENDMDL
MODEL 3
REMARK VINA RESULT:      -6.6      2.854      4.296
REMARK SMILES O=C(O)/C=C/c1cccc(O)c1
REMARK SMILES IDX 5 1 4 2 6 3 8 4 7 5 9 6 10 7 12 8 11 9 2 11 1 12 3 13
REMARK H PARENT 11 10 3 14
ROOT
ATOM      1  C   UNL     1       4.579  -0.965 -25.403  1.00  0.00     0.016 C 
ATOM      2  C   UNL     1       5.113  -1.427 -24.260  1.00  0.00     0.094 C 
ENDROOT
BRANCH   1   3
ATOM      3  C   UNL     1       5.341  -0.190 -26.389  1.00  0.00    -0.022 A 
ATOM      4  C   UNL     1       7.043   1.483 -26.845  1.00  0.00     0.004 A 
ATOM      5  C   UNL     1       6.308   0.717 -25.936  1.00  0.00     0.008 A 
ATOM      6  C   UNL     1       6.805   1.358 -28.211  1.00  0.00     0.046 A 
ATOM      7  C   UNL     1       5.832   0.475 -28.661  1.00  0.00     0.116 A 
ATOM      8  C   UNL     1       5.094  -0.298 -27.765  1.00  0.00     0.054 A 
BRANCH   7   9
ATOM      9  O   UNL     1       5.620   0.399 -30.006  1.00  0.00    -0.508 OA
ATOM     10  H   UNL     1       6.334   0.873 -30.465  1.00  0.00     0.293 HD
ENDBRANCH   7   9
ENDBRANCH   1   3
BRANCH   2  11
ATOM     11  C   UNL     1       4.261  -2.183 -23.322  1.00  0.00     0.328 C 
ATOM     12  O   UNL     1       4.675  -2.953 -22.474  1.00  0.00    -0.247 OA
BRANCH  11  13
ATOM     13  O   UNL     1       2.951  -1.924 -23.508  1.00  0.00    -0.478 OA
ATOM     14  H   UNL     1       2.343  -2.357 -22.883  1.00  0.00     0.297 HD
ENDBRANCH  11  13
ENDBRANCH   2  11
TORSDOF 4
ENDMDL
MODEL 4
REMARK VINA RESULT:      -6.5      2.766      6.077
REMARK SMILES O=C(O)/C=C/c1cccc(O)c1
REMARK SMILES IDX 5 1 4 2 6 3 8 4 7 5 9 6 10 7 12 8 11 9 2 11 1 12 3 13
REMARK H PARENT 11 10 3 14
ROOT
ATOM      1  C   UNL     1       6.215  -2.303 -20.707  1.00  0.00     0.016 C 
ATOM      2  C   UNL     1       5.216  -1.770 -21.429  1.00  0.00     0.094 C 
ENDROOT
BRANCH   1   3
ATOM      3  C   UNL     1       6.601  -1.808 -19.381  1.00  0.00    -0.022 A 
ATOM      4  C   UNL     1       6.349  -1.931 -16.968  1.00  0.00     0.004 A 
ATOM      5  C   UNL     1       6.018  -2.386 -18.247  1.00  0.00     0.008 A 
ATOM      6  C   UNL     1       7.256  -0.884 -16.816  1.00  0.00     0.046 A 
ATOM      7  C   UNL     1       7.819  -0.296 -17.941  1.00  0.00     0.116 A 
ATOM      8  C   UNL     1       7.501  -0.743 -19.222  1.00  0.00     0.054 A 
BRANCH   7   9
ATOM      9  O   UNL     1       8.689   0.737 -17.745  1.00  0.00    -0.508 OA
ATOM     10  H   UNL     1       8.285   1.556 -18.077  1.00  0.00     0.293 HD
ENDBRANCH   7   9
ENDBRANCH   1   3
BRANCH   2  11
ATOM     11  C   UNL     1       4.913  -2.328 -22.761  1.00  0.00     0.328 C 
ATOM     12  O   UNL     1       4.231  -3.318 -22.961  1.00  0.00    -0.247 OA
BRANCH  11  13
ATOM     13  O   UNL     1       5.480  -1.610 -23.750  1.00  0.00    -0.478 OA
ATOM     14  H   UNL     1       6.251  -2.020 -24.181  1.00  0.00     0.297 HD
ENDBRANCH  11  13
ENDBRANCH   2  11
TORSDOF 4
ENDMDL
MODEL 5
REMARK VINA RESULT:      -6.5      2.029      5.757
REMARK SMILES O=C(O)/C=C/c1cccc(O)c1
REMARK SMILES IDX 5 1 4 2 6 3 8 4 7 5 9 6 10 7 12 8 11 9 2 11 1 12 3 13
REMARK H PARENT 11 10 3 14
ROOT
ATOM      1  C   UNL     1       5.460   0.058 -26.110  1.00  0.00     0.016 C 
ATOM      2  C   UNL     1       5.336  -0.120 -27.435  1.00  0.00     0.094 C 
ENDROOT
BRANCH   1   3
ATOM      3  C   UNL     1       4.712  -0.726 -25.120  1.00  0.00    -0.022 A 
ATOM      4  C   UNL     1       2.566  -1.446 -24.239  1.00  0.00     0.004 A 
ATOM      5  C   UNL     1       3.312  -0.723 -25.174  1.00  0.00     0.008 A 
ATOM      6  C   UNL     1       3.214  -2.163 -23.237  1.00  0.00     0.046 A 
ATOM      7  C   UNL     1       4.601  -2.150 -23.170  1.00  0.00     0.116 A 
ATOM      8  C   UNL     1       5.358  -1.437 -24.098  1.00  0.00     0.054 A 
BRANCH   7   9
ATOM      9  O   UNL     1       5.192  -2.853 -22.161  1.00  0.00    -0.508 OA
ATOM     10  H   UNL     1       5.623  -3.639 -22.536  1.00  0.00     0.293 HD
ENDBRANCH   7   9
ENDBRANCH   1   3
BRANCH   2  11
ATOM     11  C   UNL     1       6.120   0.730 -28.352  1.00  0.00     0.328 C 
ATOM     12  O   UNL     1       5.912   0.836 -29.548  1.00  0.00    -0.247 OA
BRANCH  11  13
ATOM     13  O   UNL     1       7.105   1.389 -27.712  1.00  0.00    -0.478 OA
ATOM     14  H   UNL     1       6.991   1.488 -26.749  1.00  0.00     0.297 HD
ENDBRANCH  11  13
ENDBRANCH   2  11
TORSDOF 4
ENDMDL
MODEL 6
REMARK VINA RESULT:      -6.1     13.489     16.485
REMARK SMILES O=C(O)/C=C/c1cccc(O)c1
REMARK SMILES IDX 5 1 4 2 6 3 8 4 7 5 9 6 10 7 12 8 11 9 2 11 1 12 3 13
REMARK H PARENT 11 10 3 14
ROOT
ATOM      1  C   UNL     1      -8.572   1.671 -31.888  1.00  0.00     0.016 C 
ATOM      2  C   UNL     1      -8.901   0.892 -32.931  1.00  0.00     0.094 C 
ENDROOT
BRANCH   1   3
ATOM      3  C   UNL     1      -7.198   1.815 -31.395  1.00  0.00    -0.022 A 
ATOM      4  C   UNL     1      -5.693   2.556 -29.637  1.00  0.00     0.004 A 
ATOM      5  C   UNL     1      -6.988   2.389 -30.134  1.00  0.00     0.008 A 
ATOM      6  C   UNL     1      -4.598   2.164 -30.404  1.00  0.00     0.046 A 
ATOM      7  C   UNL     1      -4.804   1.615 -31.663  1.00  0.00     0.116 A 
ATOM      8  C   UNL     1      -6.090   1.439 -32.169  1.00  0.00     0.054 A 
BRANCH   7   9
ATOM      9  O   UNL     1      -3.702   1.262 -32.386  1.00  0.00    -0.508 OA
ATOM     10  H   UNL     1      -2.924   1.711 -32.015  1.00  0.00     0.293 HD
ENDBRANCH   7   9
ENDBRANCH   1   3
BRANCH   2  11
ATOM     11  C   UNL     1     -10.315   0.799 -33.342  1.00  0.00     0.328 C 
ATOM     12  O   UNL     1     -10.816  -0.165 -33.894  1.00  0.00    -0.247 OA
BRANCH  11  13
ATOM     13  O   UNL     1     -11.005   1.915 -33.033  1.00  0.00    -0.478 OA
ATOM     14  H   UNL     1     -10.692   2.735 -33.455  1.00  0.00     0.297 HD
ENDBRANCH  11  13
ENDBRANCH   2  11
TORSDOF 4
ENDMDL
MODEL 7
REMARK VINA RESULT:      -6.1      4.068      7.202
REMARK SMILES O=C(O)/C=C/c1cccc(O)c1
REMARK SMILES IDX 5 1 4 2 6 3 8 4 7 5 9 6 10 7 12 8 11 9 2 11 1 12 3 13
REMARK H PARENT 11 10 3 14
ROOT
ATOM      1  C   UNL     1       7.527  -1.663 -19.038  1.00  0.00     0.016 C 
ATOM      2  C   UNL     1       6.518  -1.428 -19.891  1.00  0.00     0.094 C 
ENDROOT
BRANCH   1   3
ATOM      3  C   UNL     1       7.984  -0.685 -18.044  1.00  0.00    -0.022 A 
ATOM      4  C   UNL     1       9.628  -0.036 -16.378  1.00  0.00     0.004 A 
ATOM      5  C   UNL     1       9.170  -0.937 -17.342  1.00  0.00     0.008 A 
ATOM      6  C   UNL     1       8.897   1.116 -16.099  1.00  0.00     0.046 A 
ATOM      7  C   UNL     1       7.710   1.357 -16.779  1.00  0.00     0.116 A 
ATOM      8  C   UNL     1       7.243   0.468 -17.747  1.00  0.00     0.054 A 
BRANCH   7   9
ATOM      9  O   UNL     1       7.018   2.489 -16.461  1.00  0.00    -0.508 OA
ATOM     10  H   UNL     1       6.070   2.328 -16.599  1.00  0.00     0.293 HD
ENDBRANCH   7   9
ENDBRANCH   1   3
BRANCH   2  11
ATOM     11  C   UNL     1       6.142  -2.469 -20.867  1.00  0.00     0.328 C 
ATOM     12  O   UNL     1       5.452  -2.280 -21.853  1.00  0.00    -0.247 OA
BRANCH  11  13
ATOM     13  O   UNL     1       6.657  -3.672 -20.545  1.00  0.00    -0.478 OA
ATOM     14  H   UNL     1       7.201  -3.696 -19.737  1.00  0.00     0.297 HD
ENDBRANCH  11  13
ENDBRANCH   2  11
TORSDOF 4
ENDMDL
MODEL 8
REMARK VINA RESULT:      -5.9      9.618     10.802
REMARK SMILES O=C(O)/C=C/c1cccc(O)c1
REMARK SMILES IDX 5 1 4 2 6 3 8 4 7 5 9 6 10 7 12 8 11 9 2 11 1 12 3 13
REMARK H PARENT 11 10 3 14
ROOT
ATOM      1  C   UNL     1      -5.574  -1.119 -26.083  1.00  0.00     0.016 C 
ATOM      2  C   UNL     1      -5.526  -0.687 -24.812  1.00  0.00     0.094 C 
ENDROOT
BRANCH   1   3
ATOM      3  C   UNL     1      -4.502  -0.878 -27.055  1.00  0.00    -0.022 A 
ATOM      4  C   UNL     1      -3.370  -1.541 -29.100  1.00  0.00     0.004 A 
ATOM      5  C   UNL     1      -4.389  -1.730 -28.162  1.00  0.00     0.008 A 
ATOM      6  C   UNL     1      -2.451  -0.508 -28.930  1.00  0.00     0.046 A 
ATOM      7  C   UNL     1      -2.550   0.323 -27.822  1.00  0.00     0.116 A 
ATOM      8  C   UNL     1      -3.562   0.149 -26.881  1.00  0.00     0.054 A 
BRANCH   7   9
ATOM      9  O   UNL     1      -1.617   1.310 -27.688  1.00  0.00    -0.508 OA
ATOM     10  H   UNL     1      -1.609   1.849 -28.496  1.00  0.00     0.293 HD
ENDBRANCH   7   9
ENDBRANCH   1   3
BRANCH   2  11
ATOM     11  C   UNL     1      -6.663  -0.965 -23.913  1.00  0.00     0.328 C 
ATOM     12  O   UNL     1      -7.528  -0.159 -23.619  1.00  0.00    -0.247 OA
BRANCH  11  13
ATOM     13  O   UNL     1      -6.642  -2.230 -23.448  1.00  0.00    -0.478 OA
ATOM     14  H   UNL     1      -7.480  -2.721 -23.523  1.00  0.00     0.297 HD
ENDBRANCH  11  13
ENDBRANCH   2  11
TORSDOF 4
ENDMDL
MODEL 9
REMARK VINA RESULT:      -5.9     13.335     16.301
REMARK SMILES O=C(O)/C=C/c1cccc(O)c1
REMARK SMILES IDX 5 1 4 2 6 3 8 4 7 5 9 6 10 7 12 8 11 9 2 11 1 12 3 13
REMARK H PARENT 11 10 3 14
ROOT
ATOM      1  C   UNL     1      -8.522   0.422 -31.678  1.00  0.00     0.016 C 
ATOM      2  C   UNL     1      -9.061   0.590 -32.896  1.00  0.00     0.094 C 
ENDROOT
BRANCH   1   3
ATOM      3  C   UNL     1      -7.083   0.237 -31.455  1.00  0.00    -0.022 A 
ATOM      4  C   UNL     1      -5.299  -0.922 -30.281  1.00  0.00     0.004 A 
ATOM      5  C   UNL     1      -6.661  -0.727 -30.531  1.00  0.00     0.008 A 
ATOM      6  C   UNL     1      -4.353  -0.143 -30.943  1.00  0.00     0.046 A 
ATOM      7  C   UNL     1      -4.772   0.827 -31.844  1.00  0.00     0.116 A 
ATOM      8  C   UNL     1      -6.126   1.029 -32.106  1.00  0.00     0.054 A 
BRANCH   7   9
ATOM      9  O   UNL     1      -3.811   1.578 -32.457  1.00  0.00    -0.508 OA
ATOM     10  H   UNL     1      -3.987   2.517 -32.284  1.00  0.00     0.293 HD
ENDBRANCH   7   9
ENDBRANCH   1   3
BRANCH   2  11
ATOM     11  C   UNL     1     -10.523   0.752 -33.020  1.00  0.00     0.328 C 
ATOM     12  O   UNL     1     -11.320  -0.167 -33.083  1.00  0.00    -0.247 OA
BRANCH  11  13
ATOM     13  O   UNL     1     -10.886   2.049 -33.053  1.00  0.00    -0.478 OA
ATOM     14  H   UNL     1     -10.896   2.462 -33.936  1.00  0.00     0.297 HD
ENDBRANCH  11  13
ENDBRANCH   2  11
TORSDOF 4
ENDMDL
MODEL 10
REMARK VINA RESULT:      -5.8     13.378     16.357
REMARK SMILES O=C(O)/C=C/c1cccc(O)c1
REMARK SMILES IDX 5 1 4 2 6 3 8 4 7 5 9 6 10 7 12 8 11 9 2 11 1 12 3 13
REMARK H PARENT 11 10 3 14
ROOT
ATOM      1  C   UNL     1      -8.582   1.437 -31.638  1.00  0.00     0.016 C 
ATOM      2  C   UNL     1      -9.091   0.690 -32.631  1.00  0.00     0.094 C 
ENDROOT
BRANCH   1   3
ATOM      3  C   UNL     1      -7.169   1.394 -31.244  1.00  0.00    -0.022 A 
ATOM      4  C   UNL     1      -5.229   2.553 -30.353  1.00  0.00     0.004 A 
ATOM      5  C   UNL     1      -6.576   2.552 -30.726  1.00  0.00     0.008 A 
ATOM      6  C   UNL     1      -4.463   1.400 -30.511  1.00  0.00     0.046 A 
ATOM      7  C   UNL     1      -5.045   0.258 -31.044  1.00  0.00     0.116 A 
ATOM      8  C   UNL     1      -6.388   0.241 -31.416  1.00  0.00     0.054 A 
BRANCH   7   9
ATOM      9  O   UNL     1      -4.252  -0.843 -31.197  1.00  0.00    -0.508 OA
ATOM     10  H   UNL     1      -4.444  -1.253 -32.056  1.00  0.00     0.293 HD
ENDBRANCH   7   9
ENDBRANCH   1   3
BRANCH   2  11
ATOM     11  C   UNL     1     -10.530   0.791 -32.942  1.00  0.00     0.328 C 
ATOM     12  O   UNL     1     -11.283  -0.159 -33.065  1.00  0.00    -0.247 OA
BRANCH  11  13
ATOM     13  O   UNL     1     -10.929   2.072 -33.076  1.00  0.00    -0.478 OA
ATOM     14  H   UNL     1     -10.416   2.610 -33.706  1.00  0.00     0.297 HD
ENDBRANCH  11  13
ENDBRANCH   2  11
TORSDOF 4
ENDMDL
