MODEL 1
REMARK VINA RESULT:      -6.3      0.000      0.000
REMARK SMILES COc1cc(C=CC(=O)O)c(OC)cc1O
REMARK SMILES IDX 6 1 7 2 5 3 11 4 14 5 15 6 4 7 3 8 12 9 13 10 16 11 2 13
REMARK SMILES IDX 1 14 8 15 9 16 10 17
REMARK H PARENT 16 12 10 18
ROOT
ATOM      1  C   UNL     1      -8.460   0.936 -31.705  1.00  0.00     0.019 C 
ATOM      2  C   UNL     1      -8.844   0.899 -32.991  1.00  0.00     0.094 C 
ENDROOT
BRANCH   1   3
ATOM      3  C   UNL     1      -7.050   0.981 -31.282  1.00  0.00     0.021 A 
ATOM      4  C   UNL     1      -6.278  -0.160 -30.996  1.00  0.00     0.130 A 
ATOM      5  C   UNL     1      -4.947  -0.005 -30.591  1.00  0.00     0.097 A 
ATOM      6  C   UNL     1      -4.388   1.272 -30.440  1.00  0.00     0.161 A 
ATOM      7  C   UNL     1      -6.478   2.252 -31.111  1.00  0.00     0.062 A 
ATOM      8  C   UNL     1      -5.151   2.415 -30.693  1.00  0.00     0.161 A 
BRANCH   4   9
ATOM      9  O   UNL     1      -6.888  -1.380 -31.155  1.00  0.00    -0.496 OA
ATOM     10  C   UNL     1      -7.013  -2.200 -29.999  1.00  0.00     0.278 C 
ENDBRANCH   4   9
BRANCH   6  11
ATOM     11  O   UNL     1      -3.081   1.364 -30.044  1.00  0.00    -0.504 OA
ATOM     12  H   UNL     1      -2.999   2.018 -29.333  1.00  0.00     0.293 HD
ENDBRANCH   6  11
BRANCH   8  13
ATOM     13  O   UNL     1      -4.783   3.728 -30.597  1.00  0.00    -0.493 OA
ATOM     14  C   UNL     1      -4.869   4.365 -29.330  1.00  0.00     0.278 C 
ENDBRANCH   8  13
ENDBRANCH   1   3
BRANCH   2  15
ATOM     15  C   UNL     1     -10.280   0.870 -33.320  1.00  0.00     0.328 C 
ATOM     16  O   UNL     1     -10.864  -0.080 -33.812  1.00  0.00    -0.247 OA
BRANCH  15  17
ATOM     17  O   UNL     1     -10.889   2.033 -33.011  1.00  0.00    -0.478 OA
ATOM     18  H   UNL     1     -11.222   2.093 -32.098  1.00  0.00     0.297 HD
ENDBRANCH  15  17
ENDBRANCH   2  15
TORSDOF 6
ENDMDL
MODEL 2
REMARK VINA RESULT:      -6.2      1.607      2.339
REMARK SMILES COc1cc(C=CC(=O)O)c(OC)cc1O
REMARK SMILES IDX 6 1 7 2 5 3 11 4 14 5 15 6 4 7 3 8 12 9 13 10 16 11 2 13
REMARK SMILES IDX 1 14 8 15 9 16 10 17
REMARK H PARENT 16 12 10 18
ROOT
ATOM      1  C   UNL     1      -8.485  -0.541 -32.299  1.00  0.00     0.019 C 
ATOM      2  C   UNL     1      -9.448   0.345 -31.999  1.00  0.00     0.094 C 
ENDROOT
BRANCH   1   3
ATOM      3  C   UNL     1      -7.416  -0.924 -31.361  1.00  0.00     0.021 A 
ATOM      4  C   UNL     1      -7.505  -2.007 -30.467  1.00  0.00     0.130 A 
ATOM      5  C   UNL     1      -6.432  -2.278 -29.608  1.00  0.00     0.097 A 
ATOM      6  C   UNL     1      -5.289  -1.465 -29.610  1.00  0.00     0.161 A 
ATOM      7  C   UNL     1      -6.270  -0.112 -31.338  1.00  0.00     0.062 A 
ATOM      8  C   UNL     1      -5.200  -0.369 -30.472  1.00  0.00     0.161 A 
BRANCH   4   9
ATOM      9  O   UNL     1      -8.654  -2.756 -30.510  1.00  0.00    -0.496 OA
ATOM     10  C   UNL     1      -8.518  -4.163 -30.345  1.00  0.00     0.278 C 
ENDBRANCH   4   9
BRANCH   6  11
ATOM     11  O   UNL     1      -4.271  -1.779 -28.751  1.00  0.00    -0.504 OA
ATOM     12  H   UNL     1      -4.440  -1.380 -27.884  1.00  0.00     0.293 HD
ENDBRANCH   6  11
BRANCH   8  13
ATOM     13  O   UNL     1      -4.178   0.529 -30.610  1.00  0.00    -0.493 OA
ATOM     14  C   UNL     1      -4.126   1.638 -29.725  1.00  0.00     0.278 C 
ENDBRANCH   8  13
ENDBRANCH   1   3
BRANCH   2  15
ATOM     15  C   UNL     1     -10.486   0.656 -32.998  1.00  0.00     0.328 C 
ATOM     16  O   UNL     1     -10.929  -0.136 -33.811  1.00  0.00    -0.247 OA
BRANCH  15  17
ATOM     17  O   UNL     1     -10.897   1.938 -32.913  1.00  0.00    -0.478 OA
ATOM     18  H   UNL     1     -11.677   2.082 -32.348  1.00  0.00     0.297 HD
ENDBRANCH  15  17
ENDBRANCH   2  15
TORSDOF 6
ENDMDL
MODEL 3
REMARK VINA RESULT:      -6.1      2.236      4.441
REMARK SMILES COc1cc(C=CC(=O)O)c(OC)cc1O
REMARK SMILES IDX 6 1 7 2 5 3 11 4 14 5 15 6 4 7 3 8 12 9 13 10 16 11 2 13
REMARK SMILES IDX 1 14 8 15 9 16 10 17
REMARK H PARENT 16 12 10 18
ROOT
ATOM      1  C   UNL     1      -8.833  -0.851 -31.900  1.00  0.00     0.019 C 
ATOM      2  C   UNL     1      -9.697   0.172 -31.804  1.00  0.00     0.094 C 
ENDROOT
BRANCH   1   3
ATOM      3  C   UNL     1      -7.982  -1.298 -30.784  1.00  0.00     0.021 A 
ATOM      4  C   UNL     1      -6.609  -1.011 -30.678  1.00  0.00     0.130 A 
ATOM      5  C   UNL     1      -5.889  -1.494 -29.578  1.00  0.00     0.097 A 
ATOM      6  C   UNL     1      -6.515  -2.283 -28.602  1.00  0.00     0.161 A 
ATOM      7  C   UNL     1      -8.589  -2.101 -29.804  1.00  0.00     0.062 A 
ATOM      8  C   UNL     1      -7.872  -2.599 -28.709  1.00  0.00     0.161 A 
BRANCH   4   9
ATOM      9  O   UNL     1      -6.055  -0.242 -31.672  1.00  0.00    -0.496 OA
ATOM     10  C   UNL     1      -4.846   0.441 -31.367  1.00  0.00     0.278 C 
ENDBRANCH   4   9
BRANCH   6  11
ATOM     11  O   UNL     1      -5.763  -2.725 -27.548  1.00  0.00    -0.504 OA
ATOM     12  H   UNL     1      -6.301  -3.297 -26.979  1.00  0.00     0.293 HD
ENDBRANCH   6  11
BRANCH   8  13
ATOM     13  O   UNL     1      -8.643  -3.350 -27.867  1.00  0.00    -0.493 OA
ATOM     14  C   UNL     1      -9.591  -4.244 -28.432  1.00  0.00     0.278 C 
ENDBRANCH   8  13
ENDBRANCH   1   3
BRANCH   2  15
ATOM     15  C   UNL     1     -10.519   0.539 -32.972  1.00  0.00     0.328 C 
ATOM     16  O   UNL     1     -10.799  -0.210 -33.890  1.00  0.00    -0.247 OA
BRANCH  15  17
ATOM     17  O   UNL     1     -10.932   1.822 -32.910  1.00  0.00    -0.478 OA
ATOM     18  H   UNL     1     -10.858   2.317 -33.745  1.00  0.00     0.297 HD
ENDBRANCH  15  17
ENDBRANCH   2  15
TORSDOF 6
ENDMDL
MODEL 4
REMARK VINA RESULT:      -5.9      2.191      4.412
REMARK SMILES COc1cc(C=CC(=O)O)c(OC)cc1O
REMARK SMILES IDX 6 1 7 2 5 3 11 4 14 5 15 6 4 7 3 8 12 9 13 10 16 11 2 13
REMARK SMILES IDX 1 14 8 15 9 16 10 17
REMARK H PARENT 16 12 10 18
ROOT
ATOM      1  C   UNL     1      -7.860  -2.205 -30.623  1.00  0.00     0.019 C 
ATOM      2  C   UNL     1      -7.573  -3.213 -29.784  1.00  0.00     0.094 C 
ENDROOT
BRANCH   1   3
ATOM      3  C   UNL     1      -6.935  -1.092 -30.897  1.00  0.00     0.021 A 
ATOM      4  C   UNL     1      -7.174  -0.088 -31.854  1.00  0.00     0.130 A 
ATOM      5  C   UNL     1      -6.222   0.922 -32.043  1.00  0.00     0.097 A 
ATOM      6  C   UNL     1      -5.025   0.924 -31.311  1.00  0.00     0.161 A 
ATOM      7  C   UNL     1      -5.724  -1.082 -30.185  1.00  0.00     0.062 A 
ATOM      8  C   UNL     1      -4.762  -0.082 -30.378  1.00  0.00     0.161 A 
BRANCH   4   9
ATOM      9  O   UNL     1      -8.360  -0.154 -32.542  1.00  0.00    -0.496 OA
ATOM     10  C   UNL     1      -8.426   0.524 -33.790  1.00  0.00     0.278 C 
ENDBRANCH   4   9
BRANCH   6  11
ATOM     11  O   UNL     1      -4.133   1.937 -31.535  1.00  0.00    -0.504 OA
ATOM     12  H   UNL     1      -3.280   1.567 -31.811  1.00  0.00     0.293 HD
ENDBRANCH   6  11
BRANCH   8  13
ATOM     13  O   UNL     1      -3.661  -0.246 -29.585  1.00  0.00    -0.493 OA
ATOM     14  C   UNL     1      -3.382  -1.540 -29.071  1.00  0.00     0.278 C 
ENDBRANCH   8  13
ENDBRANCH   1   3
BRANCH   2  15
ATOM     15  C   UNL     1      -8.556  -4.292 -29.582  1.00  0.00     0.328 C 
ATOM     16  O   UNL     1      -9.242  -4.783 -30.462  1.00  0.00    -0.247 OA
BRANCH  15  17
ATOM     17  O   UNL     1      -8.615  -4.682 -28.292  1.00  0.00    -0.478 OA
ATOM     18  H   UNL     1      -9.501  -4.640 -27.891  1.00  0.00     0.297 HD
ENDBRANCH  15  17
ENDBRANCH   2  15
TORSDOF 6
ENDMDL
MODEL 5
REMARK VINA RESULT:      -5.9      4.665      6.220
REMARK SMILES COc1cc(C=CC(=O)O)c(OC)cc1O
REMARK SMILES IDX 6 1 7 2 5 3 11 4 14 5 15 6 4 7 3 8 12 9 13 10 16 11 2 13
REMARK SMILES IDX 1 14 8 15 9 16 10 17
REMARK H PARENT 16 12 10 18
ROOT
ATOM      1  C   UNL     1      -5.439  -1.471 -25.902  1.00  0.00     0.019 C 
ATOM      2  C   UNL     1      -6.556  -0.854 -25.486  1.00  0.00     0.094 C 
ENDROOT
BRANCH   1   3
ATOM      3  C   UNL     1      -4.969  -1.440 -27.298  1.00  0.00     0.021 A 
ATOM      4  C   UNL     1      -5.617  -2.097 -28.360  1.00  0.00     0.130 A 
ATOM      5  C   UNL     1      -5.080  -2.011 -29.651  1.00  0.00     0.097 A 
ATOM      6  C   UNL     1      -3.890  -1.306 -29.886  1.00  0.00     0.161 A 
ATOM      7  C   UNL     1      -3.772  -0.752 -27.550  1.00  0.00     0.062 A 
ATOM      8  C   UNL     1      -3.221  -0.673 -28.835  1.00  0.00     0.161 A 
BRANCH   4   9
ATOM      9  O   UNL     1      -6.771  -2.777 -28.060  1.00  0.00    -0.496 OA
ATOM     10  C   UNL     1      -7.662  -3.051 -29.135  1.00  0.00     0.278 C 
ENDBRANCH   4   9
BRANCH   6  11
ATOM     11  O   UNL     1      -3.413  -1.253 -31.167  1.00  0.00    -0.504 OA
ATOM     12  H   UNL     1      -4.086  -0.872 -31.752  1.00  0.00     0.293 HD
ENDBRANCH   6  11
BRANCH   8  13
ATOM     13  O   UNL     1      -2.061   0.049 -28.872  1.00  0.00    -0.493 OA
ATOM     14  C   UNL     1      -1.930   1.167 -28.007  1.00  0.00     0.278 C 
ENDBRANCH   8  13
ENDBRANCH   1   3
BRANCH   2  15
ATOM     15  C   UNL     1      -6.940  -0.928 -24.065  1.00  0.00     0.328 C 
ATOM     16  O   UNL     1      -7.514  -0.046 -23.451  1.00  0.00    -0.247 OA
BRANCH  15  17
ATOM     17  O   UNL     1      -6.578  -2.102 -23.508  1.00  0.00    -0.478 OA
ATOM     18  H   UNL     1      -7.255  -2.801 -23.545  1.00  0.00     0.297 HD
ENDBRANCH  15  17
ENDBRANCH   2  15
TORSDOF 6
ENDMDL
MODEL 6
REMARK VINA RESULT:      -5.8      3.851      4.816
REMARK SMILES COc1cc(C=CC(=O)O)c(OC)cc1O
REMARK SMILES IDX 6 1 7 2 5 3 11 4 14 5 15 6 4 7 3 8 12 9 13 10 16 11 2 13
REMARK SMILES IDX 1 14 8 15 9 16 10 17
REMARK H PARENT 16 12 10 18
ROOT
ATOM      1  C   UNL     1      -6.974  -2.645 -28.633  1.00  0.00     0.019 C 
ATOM      2  C   UNL     1      -7.426  -3.464 -29.596  1.00  0.00     0.094 C 
ENDROOT
BRANCH   1   3
ATOM      3  C   UNL     1      -5.685  -1.937 -28.713  1.00  0.00     0.021 A 
ATOM      4  C   UNL     1      -4.871  -1.659 -27.600  1.00  0.00     0.130 A 
ATOM      5  C   UNL     1      -3.666  -0.968 -27.785  1.00  0.00     0.097 A 
ATOM      6  C   UNL     1      -3.282  -0.527 -29.060  1.00  0.00     0.161 A 
ATOM      7  C   UNL     1      -5.291  -1.475 -29.979  1.00  0.00     0.062 A 
ATOM      8  C   UNL     1      -4.095  -0.772 -30.170  1.00  0.00     0.161 A 
BRANCH   4   9
ATOM      9  O   UNL     1      -5.310  -2.109 -26.379  1.00  0.00    -0.496 OA
ATOM     10  C   UNL     1      -5.502  -1.137 -25.359  1.00  0.00     0.278 C 
ENDBRANCH   4   9
BRANCH   6  11
ATOM     11  O   UNL     1      -2.094   0.140 -29.182  1.00  0.00    -0.504 OA
ATOM     12  H   UNL     1      -2.251   1.027 -29.541  1.00  0.00     0.293 HD
ENDBRANCH   6  11
BRANCH   8  13
ATOM     13  O   UNL     1      -3.889  -0.419 -31.474  1.00  0.00    -0.493 OA
ATOM     14  C   UNL     1      -4.281   0.880 -31.895  1.00  0.00     0.278 C 
ENDBRANCH   8  13
ENDBRANCH   1   3
BRANCH   2  15
ATOM     15  C   UNL     1      -8.736  -4.120 -29.436  1.00  0.00     0.328 C 
ATOM     16  O   UNL     1      -9.575  -4.226 -30.313  1.00  0.00    -0.247 OA
BRANCH  15  17
ATOM     17  O   UNL     1      -8.908  -4.597 -28.186  1.00  0.00    -0.478 OA
ATOM     18  H   UNL     1      -8.649  -3.986 -27.474  1.00  0.00     0.297 HD
ENDBRANCH  15  17
ENDBRANCH   2  15
TORSDOF 6
ENDMDL
MODEL 7
REMARK VINA RESULT:      -5.7      2.987      5.309
REMARK SMILES COc1cc(C=CC(=O)O)c(OC)cc1O
REMARK SMILES IDX 6 1 7 2 5 3 11 4 14 5 15 6 4 7 3 8 12 9 13 10 16 11 2 13
REMARK SMILES IDX 1 14 8 15 9 16 10 17
REMARK H PARENT 16 12 10 18
ROOT
ATOM      1  C   UNL     1      -8.708  -3.416 -30.162  1.00  0.00     0.019 C 
ATOM      2  C   UNL     1      -9.795  -4.094 -30.563  1.00  0.00     0.094 C 
ENDROOT
BRANCH   1   3
ATOM      3  C   UNL     1      -8.223  -2.197 -30.831  1.00  0.00     0.021 A 
ATOM      4  C   UNL     1      -7.070  -1.491 -30.441  1.00  0.00     0.130 A 
ATOM      5  C   UNL     1      -6.702  -0.335 -31.141  1.00  0.00     0.097 A 
ATOM      6  C   UNL     1      -7.487   0.140 -32.203  1.00  0.00     0.161 A 
ATOM      7  C   UNL     1      -9.004  -1.698 -31.887  1.00  0.00     0.062 A 
ATOM      8  C   UNL     1      -8.650  -0.535 -32.582  1.00  0.00     0.161 A 
BRANCH   4   9
ATOM      9  O   UNL     1      -6.353  -2.004 -29.389  1.00  0.00    -0.496 OA
ATOM     10  C   UNL     1      -4.957  -1.732 -29.360  1.00  0.00     0.278 C 
ENDBRANCH   4   9
BRANCH   6  11
ATOM     11  O   UNL     1      -7.078   1.273 -32.852  1.00  0.00    -0.504 OA
ATOM     12  H   UNL     1      -7.735   1.523 -33.520  1.00  0.00     0.293 HD
ENDBRANCH   6  11
BRANCH   8  13
ATOM     13  O   UNL     1      -9.533  -0.222 -33.578  1.00  0.00    -0.493 OA
ATOM     14  C   UNL     1     -10.532   0.752 -33.317  1.00  0.00     0.278 C 
ENDBRANCH   8  13
ENDBRANCH   1   3
BRANCH   2  15
ATOM     15  C   UNL     1     -10.213  -5.298 -29.822  1.00  0.00     0.328 C 
ATOM     16  O   UNL     1      -9.670  -5.721 -28.816  1.00  0.00    -0.247 OA
BRANCH  15  17
ATOM     17  O   UNL     1     -11.283  -5.891 -30.391  1.00  0.00    -0.478 OA
ATOM     18  H   UNL     1     -12.000  -5.285 -30.648  1.00  0.00     0.297 HD
ENDBRANCH  15  17
ENDBRANCH   2  15
TORSDOF 6
ENDMDL
MODEL 8
REMARK VINA RESULT:      -5.6      2.487      4.446
REMARK SMILES COc1cc(C=CC(=O)O)c(OC)cc1O
REMARK SMILES IDX 6 1 7 2 5 3 11 4 14 5 15 6 4 7 3 8 12 9 13 10 16 11 2 13
REMARK SMILES IDX 1 14 8 15 9 16 10 17
REMARK H PARENT 16 12 10 18
ROOT
ATOM      1  C   UNL     1      -7.779  -2.402 -29.849  1.00  0.00     0.019 C 
ATOM      2  C   UNL     1      -7.922  -3.621 -30.392  1.00  0.00     0.094 C 
ENDROOT
BRANCH   1   3
ATOM      3  C   UNL     1      -6.875  -1.375 -30.393  1.00  0.00     0.021 A 
ATOM      4  C   UNL     1      -5.554  -1.175 -29.952  1.00  0.00     0.130 A 
ATOM      5  C   UNL     1      -4.782  -0.161 -30.532  1.00  0.00     0.097 A 
ATOM      6  C   UNL     1      -5.321   0.673 -31.522  1.00  0.00     0.161 A 
ATOM      7  C   UNL     1      -7.403  -0.520 -31.376  1.00  0.00     0.062 A 
ATOM      8  C   UNL     1      -6.640   0.505 -31.950  1.00  0.00     0.161 A 
BRANCH   4   9
ATOM      9  O   UNL     1      -5.091  -2.019 -28.973  1.00  0.00    -0.496 OA
ATOM     10  C   UNL     1      -3.763  -1.810 -28.510  1.00  0.00     0.278 C 
ENDBRANCH   4   9
BRANCH   6  11
ATOM     11  O   UNL     1      -4.519   1.646 -32.055  1.00  0.00    -0.504 OA
ATOM     12  H   UNL     1      -5.057   2.416 -32.299  1.00  0.00     0.293 HD
ENDBRANCH   6  11
BRANCH   8  13
ATOM     13  O   UNL     1      -7.331   1.216 -32.891  1.00  0.00    -0.493 OA
ATOM     14  C   UNL     1      -8.220   0.518 -33.751  1.00  0.00     0.278 C 
ENDBRANCH   8  13
ENDBRANCH   1   3
BRANCH   2  15
ATOM     15  C   UNL     1      -8.862  -4.580 -29.785  1.00  0.00     0.328 C 
ATOM     16  O   UNL     1      -9.726  -5.189 -30.392  1.00  0.00    -0.247 OA
BRANCH  15  17
ATOM     17  O   UNL     1      -8.658  -4.711 -28.458  1.00  0.00    -0.478 OA
ATOM     18  H   UNL     1      -9.200  -4.126 -27.900  1.00  0.00     0.297 HD
ENDBRANCH  15  17
ENDBRANCH   2  15
TORSDOF 6
ENDMDL
MODEL 9
REMARK VINA RESULT:      -5.4      2.321      5.811
REMARK SMILES COc1cc(C=CC(=O)O)c(OC)cc1O
REMARK SMILES IDX 6 1 7 2 5 3 11 4 14 5 15 6 4 7 3 8 12 9 13 10 16 11 2 13
REMARK SMILES IDX 1 14 8 15 9 16 10 17
REMARK H PARENT 16 12 10 18
ROOT
ATOM      1  C   UNL     1      -5.491  -0.779 -30.618  1.00  0.00     0.019 C 
ATOM      2  C   UNL     1      -4.588   0.202 -30.776  1.00  0.00     0.094 C 
ENDROOT
BRANCH   1   3
ATOM      3  C   UNL     1      -6.943  -0.541 -30.565  1.00  0.00     0.021 A 
ATOM      4  C   UNL     1      -7.663  -0.334 -29.373  1.00  0.00     0.130 A 
ATOM      5  C   UNL     1      -9.047  -0.126 -29.434  1.00  0.00     0.097 A 
ATOM      6  C   UNL     1      -9.723  -0.153 -30.662  1.00  0.00     0.161 A 
ATOM      7  C   UNL     1      -7.639  -0.579 -31.784  1.00  0.00     0.062 A 
ATOM      8  C   UNL     1      -9.025  -0.385 -31.850  1.00  0.00     0.161 A 
BRANCH   4   9
ATOM      9  O   UNL     1      -6.943  -0.329 -28.204  1.00  0.00    -0.496 OA
ATOM     10  C   UNL     1      -7.508   0.361 -27.096  1.00  0.00     0.278 C 
ENDBRANCH   4   9
BRANCH   6  11
ATOM     11  O   UNL     1     -11.074   0.059 -30.661  1.00  0.00    -0.504 OA
ATOM     12  H   UNL     1     -11.531  -0.738 -30.973  1.00  0.00     0.293 HD
ENDBRANCH   6  11
BRANCH   8  13
ATOM     13  O   UNL     1      -9.509  -0.451 -33.127  1.00  0.00    -0.493 OA
ATOM     14  C   UNL     1      -9.740   0.763 -33.827  1.00  0.00     0.278 C 
ENDBRANCH   8  13
ENDBRANCH   1   3
BRANCH   2  15
ATOM     15  C   UNL     1      -3.154  -0.134 -30.832  1.00  0.00     0.328 C 
ATOM     16  O   UNL     1      -2.330   0.186 -29.994  1.00  0.00    -0.247 OA
BRANCH  15  17
ATOM     17  O   UNL     1      -2.849  -0.846 -31.937  1.00  0.00    -0.478 OA
ATOM     18  H   UNL     1      -2.764  -1.806 -31.796  1.00  0.00     0.297 HD
ENDBRANCH  15  17
ENDBRANCH   2  15
TORSDOF 6
ENDMDL
MODEL 10
REMARK VINA RESULT:      -5.4     14.711     18.039
REMARK SMILES COc1cc(C=CC(=O)O)c(OC)cc1O
REMARK SMILES IDX 6 1 7 2 5 3 11 4 14 5 15 6 4 7 3 8 12 9 13 10 16 11 2 13
REMARK SMILES IDX 1 14 8 15 9 16 10 17
REMARK H PARENT 16 12 10 18
ROOT
ATOM      1  C   UNL     1       9.352  10.438 -33.476  1.00  0.00     0.019 C 
ATOM      2  C   UNL     1       9.254  11.600 -32.812  1.00  0.00     0.094 C 
ENDROOT
BRANCH   1   3
ATOM      3  C   UNL     1       8.235   9.488 -33.616  1.00  0.00     0.021 A 
ATOM      4  C   UNL     1       8.392   8.090 -33.657  1.00  0.00     0.130 A 
ATOM      5  C   UNL     1       7.261   7.277 -33.803  1.00  0.00     0.097 A 
ATOM      6  C   UNL     1       5.984   7.841 -33.938  1.00  0.00     0.161 A 
ATOM      7  C   UNL     1       6.951  10.035 -33.767  1.00  0.00     0.062 A 
ATOM      8  C   UNL     1       5.818   9.228 -33.927  1.00  0.00     0.161 A 
BRANCH   4   9
ATOM      9  O   UNL     1       9.669   7.603 -33.530  1.00  0.00    -0.496 OA
ATOM     10  C   UNL     1       9.992   6.940 -32.314  1.00  0.00     0.278 C 
ENDBRANCH   4   9
BRANCH   6  11
ATOM     11  O   UNL     1       4.916   6.997 -34.075  1.00  0.00    -0.504 OA
ATOM     12  H   UNL     1       4.172   7.473 -34.476  1.00  0.00     0.293 HD
ENDBRANCH   6  11
BRANCH   8  13
ATOM     13  O   UNL     1       4.664   9.951 -34.048  1.00  0.00    -0.493 OA
ATOM     14  C   UNL     1       4.616  11.252 -33.480  1.00  0.00     0.278 C 
ENDBRANCH   8  13
ENDBRANCH   1   3
BRANCH   2  15
ATOM     15  C   UNL     1      10.422  12.495 -32.737  1.00  0.00     0.328 C 
ATOM     16  O   UNL     1      10.372  13.712 -32.766  1.00  0.00    -0.247 OA
BRANCH  15  17
ATOM     17  O   UNL     1      11.577  11.805 -32.632  1.00  0.00    -0.478 OA
ATOM     18  H   UNL     1      11.885  11.393 -33.458  1.00  0.00     0.297 HD
ENDBRANCH  15  17
ENDBRANCH   2  15
TORSDOF 6
ENDMDL
