MODEL 1
REMARK VINA RESULT:      -5.9      0.000      0.000
REMARK SMILES C=CC[S@](=O)C[C@H](N)C(=O)O
REMARK SMILES IDX 6 1 4 2 5 3 3 4 2 5 1 6 7 7 9 8 10 9 11 10 8 12
REMARK H PARENT 11 11 8 13 8 14
ROOT
ATOM      1  C   UNL     1      -1.443 -10.426 -27.396  1.00  0.00     0.136 C 
ENDROOT
BRANCH   1   2
ATOM      2  S   UNL     1      -2.879  -9.293 -27.358  1.00  0.00     0.027 S 
ATOM      3  O   UNL     1      -2.887  -8.560 -28.672  1.00  0.00    -0.259 OA
BRANCH   2   4
ATOM      4  C   UNL     1      -4.166 -10.592 -27.421  1.00  0.00     0.131 C 
BRANCH   4   5
ATOM      5  C   UNL     1      -5.307 -10.224 -26.521  1.00  0.00    -0.021 C 
ATOM      6  C   UNL     1      -5.990 -11.093 -25.765  1.00  0.00     0.005 C 
ENDBRANCH   4   5
ENDBRANCH   2   4
ENDBRANCH   1   2
BRANCH   1   7
ATOM      7  C   UNL     1      -0.295  -9.918 -26.519  1.00  0.00     0.174 C 
BRANCH   7   8
ATOM      8  C   UNL     1       0.452 -11.097 -25.865  1.00  0.00     0.321 C 
ATOM      9  O   UNL     1       0.427 -12.237 -26.319  1.00  0.00    -0.251 OA
BRANCH   8  10
ATOM     10  O   UNL     1       1.156 -10.789 -24.758  1.00  0.00    -0.480 OA
ATOM     11  H   UNL     1       1.197 -11.504 -24.072  1.00  0.00     0.296 HD
ENDBRANCH   8  10
ENDBRANCH   7   8
BRANCH   7  12
ATOM     12  N   UNL     1       0.659  -9.150 -27.368  1.00  0.00    -0.318 NA
ATOM     13  H   UNL     1       1.099  -8.440 -26.771  1.00  0.00     0.119 HD
ATOM     14  H   UNL     1       0.105  -8.578 -28.014  1.00  0.00     0.119 HD
ENDBRANCH   7  12
ENDBRANCH   1   7
TORSDOF 7
ENDMDL
MODEL 2
REMARK VINA RESULT:      -5.7      2.120      2.487
REMARK SMILES C=CC[S@](=O)C[C@H](N)C(=O)O
REMARK SMILES IDX 6 1 4 2 5 3 3 4 2 5 1 6 7 7 9 8 10 9 11 10 8 12
REMARK H PARENT 11 11 8 13 8 14
ROOT
ATOM      1  C   UNL     1       0.303 -10.768 -26.622  1.00  0.00     0.136 C 
ENDROOT
BRANCH   1   2
ATOM      2  S   UNL     1      -0.807  -9.315 -26.678  1.00  0.00     0.027 S 
ATOM      3  O   UNL     1      -0.040  -8.209 -27.350  1.00  0.00    -0.259 OA
BRANCH   2   4
ATOM      4  C   UNL     1      -1.989 -10.007 -27.890  1.00  0.00     0.131 C 
BRANCH   4   5
ATOM      5  C   UNL     1      -3.222  -9.155 -27.944  1.00  0.00    -0.021 C 
ATOM      6  C   UNL     1      -4.403  -9.492 -27.409  1.00  0.00     0.005 C 
ENDBRANCH   4   5
ENDBRANCH   2   4
ENDBRANCH   1   2
BRANCH   1   7
ATOM      7  C   UNL     1       0.449 -11.317 -25.200  1.00  0.00     0.174 C 
BRANCH   7   8
ATOM      8  C   UNL     1       0.807 -12.815 -25.231  1.00  0.00     0.321 C 
ATOM      9  O   UNL     1       1.321 -13.359 -26.203  1.00  0.00    -0.251 OA
BRANCH   8  10
ATOM     10  O   UNL     1       0.529 -13.496 -24.101  1.00  0.00    -0.480 OA
ATOM     11  H   UNL     1       1.087 -14.301 -23.946  1.00  0.00     0.296 HD
ENDBRANCH   8  10
ENDBRANCH   7   8
BRANCH   7  12
ATOM     12  N   UNL     1       1.536 -10.572 -24.504  1.00  0.00    -0.318 NA
ATOM     13  H   UNL     1       1.371  -9.570 -24.658  1.00  0.00     0.119 HD
ATOM     14  H   UNL     1       2.403 -10.732 -25.026  1.00  0.00     0.119 HD
ENDBRANCH   7  12
ENDBRANCH   1   7
TORSDOF 7
ENDMDL
MODEL 3
REMARK VINA RESULT:      -5.7      3.144      5.201
REMARK SMILES C=CC[S@](=O)C[C@H](N)C(=O)O
REMARK SMILES IDX 6 1 4 2 5 3 3 4 2 5 1 6 7 7 9 8 10 9 11 10 8 12
REMARK H PARENT 11 11 8 13 8 14
ROOT
ATOM      1  C   UNL     1      -3.478 -10.548 -26.753  1.00  0.00     0.136 C 
ENDROOT
BRANCH   1   2
ATOM      2  S   UNL     1      -2.331  -9.876 -28.010  1.00  0.00     0.027 S 
ATOM      3  O   UNL     1      -3.076  -8.793 -28.741  1.00  0.00    -0.259 OA
BRANCH   2   4
ATOM      4  C   UNL     1      -1.179  -9.080 -26.832  1.00  0.00     0.131 C 
BRANCH   4   5
ATOM      5  C   UNL     1       0.073  -9.896 -26.712  1.00  0.00    -0.021 C 
ATOM      6  C   UNL     1       0.464 -10.530 -25.598  1.00  0.00     0.005 C 
ENDBRANCH   4   5
ENDBRANCH   2   4
ENDBRANCH   1   2
BRANCH   1   7
ATOM      7  C   UNL     1      -4.936 -10.210 -27.076  1.00  0.00     0.174 C 
BRANCH   7   8
ATOM      8  C   UNL     1      -5.890 -11.194 -26.372  1.00  0.00     0.321 C 
ATOM      9  O   UNL     1      -5.958 -11.300 -25.152  1.00  0.00    -0.251 OA
BRANCH   8  10
ATOM     10  O   UNL     1      -6.666 -11.930 -27.193  1.00  0.00    -0.480 OA
ATOM     11  H   UNL     1      -6.192 -12.351 -27.956  1.00  0.00     0.296 HD
ENDBRANCH   8  10
ENDBRANCH   7   8
BRANCH   7  12
ATOM     12  N   UNL     1      -5.228  -8.827 -26.603  1.00  0.00    -0.318 NA
ATOM     13  H   UNL     1      -4.437  -8.234 -26.880  1.00  0.00     0.119 HD
ATOM     14  H   UNL     1      -5.152  -8.828 -25.581  1.00  0.00     0.119 HD
ENDBRANCH   7  12
ENDBRANCH   1   7
TORSDOF 7
ENDMDL
MODEL 4
REMARK VINA RESULT:      -5.3      2.500      4.672
REMARK SMILES C=CC[S@](=O)C[C@H](N)C(=O)O
REMARK SMILES IDX 6 1 4 2 5 3 3 4 2 5 1 6 7 7 9 8 10 9 11 10 8 12
REMARK H PARENT 11 11 8 13 8 14
ROOT
ATOM      1  C   UNL     1      -1.876 -10.613 -27.353  1.00  0.00     0.136 C 
ENDROOT
BRANCH   1   2
ATOM      2  S   UNL     1      -0.785  -9.199 -26.956  1.00  0.00     0.027 S 
ATOM      3  O   UNL     1      -1.515  -8.360 -25.942  1.00  0.00    -0.259 OA
BRANCH   2   4
ATOM      4  C   UNL     1       0.495 -10.168 -26.080  1.00  0.00     0.131 C 
BRANCH   4   5
ATOM      5  C   UNL     1       0.194 -11.632 -26.195  1.00  0.00    -0.021 C 
ATOM      6  C   UNL     1       0.809 -12.592 -25.492  1.00  0.00     0.005 C 
ENDBRANCH   4   5
ENDBRANCH   2   4
ENDBRANCH   1   2
BRANCH   1   7
ATOM      7  C   UNL     1      -3.149 -10.163 -28.075  1.00  0.00     0.174 C 
BRANCH   7   8
ATOM      8  C   UNL     1      -4.339 -10.116 -27.097  1.00  0.00     0.321 C 
ATOM      9  O   UNL     1      -5.032 -11.096 -26.842  1.00  0.00    -0.251 OA
BRANCH   8  10
ATOM     10  O   UNL     1      -4.564  -8.918 -26.520  1.00  0.00    -0.480 OA
ATOM     11  H   UNL     1      -5.372  -8.442 -26.841  1.00  0.00     0.296 HD
ENDBRANCH   8  10
ENDBRANCH   7   8
BRANCH   7  12
ATOM     12  N   UNL     1      -2.930  -8.801 -28.639  1.00  0.00    -0.318 NA
ATOM     13  H   UNL     1      -2.057  -8.439 -28.238  1.00  0.00     0.119 HD
ATOM     14  H   UNL     1      -3.633  -8.180 -28.226  1.00  0.00     0.119 HD
ENDBRANCH   7  12
ENDBRANCH   1   7
TORSDOF 7
ENDMDL
MODEL 5
REMARK VINA RESULT:      -5.1     13.429     14.944
REMARK SMILES C=CC[S@](=O)C[C@H](N)C(=O)O
REMARK SMILES IDX 6 1 4 2 5 3 3 4 2 5 1 6 7 7 9 8 10 9 11 10 8 12
REMARK H PARENT 11 11 8 13 8 14
ROOT
ATOM      1  C   UNL     1       6.821  -0.986 -18.798  1.00  0.00     0.136 C 
ENDROOT
BRANCH   1   2
ATOM      2  S   UNL     1       6.892  -2.438 -19.910  1.00  0.00     0.027 S 
ATOM      3  O   UNL     1       6.072  -3.520 -19.262  1.00  0.00    -0.259 OA
BRANCH   2   4
ATOM      4  C   UNL     1       5.903  -1.707 -21.264  1.00  0.00     0.131 C 
BRANCH   4   5
ATOM      5  C   UNL     1       5.157  -2.785 -21.990  1.00  0.00    -0.021 C 
ATOM      6  C   UNL     1       4.372  -2.582 -23.057  1.00  0.00     0.005 C 
ENDBRANCH   4   5
ENDBRANCH   2   4
ENDBRANCH   1   2
BRANCH   1   7
ATOM      7  C   UNL     1       7.283  -1.333 -17.380  1.00  0.00     0.174 C 
BRANCH   7   8
ATOM      8  C   UNL     1       8.046  -0.150 -16.753  1.00  0.00     0.321 C 
ATOM      9  O   UNL     1       8.330  -0.096 -15.561  1.00  0.00    -0.251 OA
BRANCH   8  10
ATOM     10  O   UNL     1       8.400   0.827 -17.612  1.00  0.00    -0.480 OA
ATOM     11  H   UNL     1       7.646   1.264 -18.086  1.00  0.00     0.296 HD
ENDBRANCH   8  10
ENDBRANCH   7   8
BRANCH   7  12
ATOM     12  N   UNL     1       6.088  -1.639 -16.544  1.00  0.00    -0.318 NA
ATOM     13  H   UNL     1       6.383  -1.600 -15.561  1.00  0.00     0.119 HD
ATOM     14  H   UNL     1       5.872  -2.634 -16.667  1.00  0.00     0.119 HD
ENDBRANCH   7  12
ENDBRANCH   1   7
TORSDOF 7
ENDMDL
MODEL 6
REMARK VINA RESULT:      -4.9     14.789     16.286
REMARK SMILES C=CC[S@](=O)C[C@H](N)C(=O)O
REMARK SMILES IDX 6 1 4 2 5 3 3 4 2 5 1 6 7 7 9 8 10 9 11 10 8 12
REMARK H PARENT 11 11 8 13 8 14
ROOT
ATOM      1  C   UNL     1       8.364  -0.525 -18.327  1.00  0.00     0.136 C 
ENDROOT
BRANCH   1   2
ATOM      2  S   UNL     1       6.912  -1.638 -18.337  1.00  0.00     0.027 S 
ATOM      3  O   UNL     1       5.864  -0.990 -17.474  1.00  0.00    -0.259 OA
BRANCH   2   4
ATOM      4  C   UNL     1       6.457  -1.365 -20.088  1.00  0.00     0.131 C 
BRANCH   4   5
ATOM      5  C   UNL     1       6.087  -2.669 -20.728  1.00  0.00    -0.021 C 
ATOM      6  C   UNL     1       5.293  -2.791 -21.800  1.00  0.00     0.005 C 
ENDBRANCH   4   5
ENDBRANCH   2   4
ENDBRANCH   1   2
BRANCH   1   7
ATOM      7  C   UNL     1       9.009  -0.446 -16.941  1.00  0.00     0.174 C 
BRANCH   7   8
ATOM      8  C   UNL     1       8.698   0.909 -16.274  1.00  0.00     0.321 C 
ATOM      9  O   UNL     1       9.410   1.405 -15.407  1.00  0.00    -0.251 OA
BRANCH   8  10
ATOM     10  O   UNL     1       7.588   1.529 -16.722  1.00  0.00    -0.480 OA
ATOM     11  H   UNL     1       7.263   2.273 -16.153  1.00  0.00     0.296 HD
ENDBRANCH   8  10
ENDBRANCH   7   8
BRANCH   7  12
ATOM     12  N   UNL     1       8.465  -1.542 -16.090  1.00  0.00    -0.318 NA
ATOM     13  H   UNL     1       9.200  -2.254 -15.999  1.00  0.00     0.119 HD
ATOM     14  H   UNL     1       7.753  -2.033 -16.640  1.00  0.00     0.119 HD
ENDBRANCH   7  12
ENDBRANCH   1   7
TORSDOF 7
ENDMDL
MODEL 7
REMARK VINA RESULT:      -4.8      2.593      3.357
REMARK SMILES C=CC[S@](=O)C[C@H](N)C(=O)O
REMARK SMILES IDX 6 1 4 2 5 3 3 4 2 5 1 6 7 7 9 8 10 9 11 10 8 12
REMARK H PARENT 11 11 8 13 8 14
ROOT
ATOM      1  C   UNL     1       0.213 -10.596 -25.373  1.00  0.00     0.136 C 
ENDROOT
BRANCH   1   2
ATOM      2  S   UNL     1      -0.097 -10.587 -27.176  1.00  0.00     0.027 S 
ATOM      3  O   UNL     1      -0.780 -11.886 -27.505  1.00  0.00    -0.259 OA
BRANCH   2   4
ATOM      4  C   UNL     1      -1.363  -9.266 -27.159  1.00  0.00     0.131 C 
BRANCH   4   5
ATOM      5  C   UNL     1      -2.466  -9.604 -28.116  1.00  0.00    -0.021 C 
ATOM      6  C   UNL     1      -3.740  -9.818 -27.763  1.00  0.00     0.005 C 
ENDBRANCH   4   5
ENDBRANCH   2   4
ENDBRANCH   1   2
BRANCH   1   7
ATOM      7  C   UNL     1       1.124 -11.754 -24.959  1.00  0.00     0.174 C 
BRANCH   7   8
ATOM      8  C   UNL     1       1.844 -11.433 -23.635  1.00  0.00     0.321 C 
ATOM      9  O   UNL     1       2.381 -10.352 -23.413  1.00  0.00    -0.251 OA
BRANCH   8  10
ATOM     10  O   UNL     1       1.832 -12.422 -22.719  1.00  0.00    -0.480 OA
ATOM     11  H   UNL     1       1.002 -12.487 -22.180  1.00  0.00     0.296 HD
ENDBRANCH   8  10
ENDBRANCH   7   8
BRANCH   7  12
ATOM     12  N   UNL     1       0.296 -12.980 -24.777  1.00  0.00    -0.318 NA
ATOM     13  H   UNL     1       0.766 -13.567 -24.078  1.00  0.00     0.119 HD
ATOM     14  H   UNL     1       0.386 -13.542 -25.629  1.00  0.00     0.119 HD
ENDBRANCH   7  12
ENDBRANCH   1   7
TORSDOF 7
ENDMDL
MODEL 8
REMARK VINA RESULT:      -4.8     11.135     12.418
REMARK SMILES C=CC[S@](=O)C[C@H](N)C(=O)O
REMARK SMILES IDX 6 1 4 2 5 3 3 4 2 5 1 6 7 7 9 8 10 9 11 10 8 12
REMARK H PARENT 11 11 8 13 8 14
ROOT
ATOM      1  C   UNL     1       4.888  -1.736 -24.514  1.00  0.00     0.136 C 
ENDROOT
BRANCH   1   2
ATOM      2  S   UNL     1       4.136  -2.124 -22.892  1.00  0.00     0.027 S 
ATOM      3  O   UNL     1       3.927  -3.614 -22.856  1.00  0.00    -0.259 OA
BRANCH   2   4
ATOM      4  C   UNL     1       5.612  -1.732 -21.884  1.00  0.00     0.131 C 
BRANCH   4   5
ATOM      5  C   UNL     1       5.985  -2.915 -21.043  1.00  0.00    -0.021 C 
ATOM      6  C   UNL     1       6.343  -2.849 -19.754  1.00  0.00     0.005 C 
ENDBRANCH   4   5
ENDBRANCH   2   4
ENDBRANCH   1   2
BRANCH   1   7
ATOM      7  C   UNL     1       4.526  -0.325 -24.984  1.00  0.00     0.174 C 
BRANCH   7   8
ATOM      8  C   UNL     1       5.198  -0.014 -26.336  1.00  0.00     0.321 C 
ATOM      9  O   UNL     1       4.848  -0.535 -27.390  1.00  0.00    -0.251 OA
BRANCH   8  10
ATOM     10  O   UNL     1       6.197   0.891 -26.289  1.00  0.00    -0.480 OA
ATOM     11  H   UNL     1       6.998   0.607 -25.778  1.00  0.00     0.296 HD
ENDBRANCH   8  10
ENDBRANCH   7   8
BRANCH   7  12
ATOM     12  N   UNL     1       3.047  -0.231 -25.143  1.00  0.00    -0.318 NA
ATOM     13  H   UNL     1       2.628  -0.408 -24.223  1.00  0.00     0.119 HD
ATOM     14  H   UNL     1       2.743  -1.048 -25.682  1.00  0.00     0.119 HD
ENDBRANCH   7  12
ENDBRANCH   1   7
TORSDOF 7
ENDMDL
MODEL 9
REMARK VINA RESULT:      -4.8     19.401     20.960
REMARK SMILES C=CC[S@](=O)C[C@H](N)C(=O)O
REMARK SMILES IDX 6 1 4 2 5 3 3 4 2 5 1 6 7 7 9 8 10 9 11 10 8 12
REMARK H PARENT 11 11 8 13 8 14
ROOT
ATOM      1  C   UNL     1       6.767   7.253 -32.726  1.00  0.00     0.136 C 
ENDROOT
BRANCH   1   2
ATOM      2  S   UNL     1       8.436   7.040 -32.009  1.00  0.00     0.027 S 
ATOM      3  O   UNL     1       8.630   5.563 -31.793  1.00  0.00    -0.259 OA
BRANCH   2   4
ATOM      4  C   UNL     1       9.366   7.524 -33.508  1.00  0.00     0.131 C 
BRANCH   4   5
ATOM      5  C   UNL     1       8.738   8.735 -34.128  1.00  0.00    -0.021 C 
ATOM      6  C   UNL     1       9.080   9.999 -33.843  1.00  0.00     0.005 C 
ENDBRANCH   4   5
ENDBRANCH   2   4
ENDBRANCH   1   2
BRANCH   1   7
ATOM      7  C   UNL     1       5.670   7.091 -31.670  1.00  0.00     0.174 C 
BRANCH   7   8
ATOM      8  C   UNL     1       4.355   6.620 -32.321  1.00  0.00     0.321 C 
ATOM      9  O   UNL     1       3.271   6.673 -31.749  1.00  0.00    -0.251 OA
BRANCH   8  10
ATOM     10  O   UNL     1       4.471   6.155 -33.581  1.00  0.00    -0.480 OA
ATOM     11  H   UNL     1       4.365   5.174 -33.679  1.00  0.00     0.296 HD
ENDBRANCH   8  10
ENDBRANCH   7   8
BRANCH   7  12
ATOM     12  N   UNL     1       6.107   6.077 -30.669  1.00  0.00    -0.318 NA
ATOM     13  H   UNL     1       7.052   5.773 -30.933  1.00  0.00     0.119 HD
ATOM     14  H   UNL     1       5.553   5.230 -30.827  1.00  0.00     0.119 HD
ENDBRANCH   7  12
ENDBRANCH   1   7
TORSDOF 7
ENDMDL
MODEL 10
REMARK VINA RESULT:      -4.7      2.479      4.841
REMARK SMILES C=CC[S@](=O)C[C@H](N)C(=O)O
REMARK SMILES IDX 6 1 4 2 5 3 3 4 2 5 1 6 7 7 9 8 10 9 11 10 8 12
REMARK H PARENT 11 11 8 13 8 14
ROOT
ATOM      1  C   UNL     1      -1.338 -10.543 -27.218  1.00  0.00     0.136 C 
ENDROOT
BRANCH   1   2
ATOM      2  S   UNL     1       0.488 -10.535 -27.104  1.00  0.00     0.027 S 
ATOM      3  O   UNL     1       0.918  -9.094 -27.128  1.00  0.00    -0.259 OA
BRANCH   2   4
ATOM      4  C   UNL     1       0.587 -11.132 -25.378  1.00  0.00     0.131 C 
BRANCH   4   5
ATOM      5  C   UNL     1       0.832 -12.610 -25.362  1.00  0.00    -0.021 C 
ATOM      6  C   UNL     1       0.719 -13.388 -24.277  1.00  0.00     0.005 C 
ENDBRANCH   4   5
ENDBRANCH   2   4
ENDBRANCH   1   2
BRANCH   1   7
ATOM      7  C   UNL     1      -1.909  -9.123 -27.278  1.00  0.00     0.174 C 
BRANCH   7   8
ATOM      8  C   UNL     1      -3.390  -9.151 -27.702  1.00  0.00     0.321 C 
ATOM      9  O   UNL     1      -3.748  -9.245 -28.872  1.00  0.00    -0.251 OA
BRANCH   8  10
ATOM     10  O   UNL     1      -4.280  -9.080 -26.691  1.00  0.00    -0.480 OA
ATOM     11  H   UNL     1      -3.922  -9.319 -25.798  1.00  0.00     0.296 HD
ENDBRANCH   8  10
ENDBRANCH   7   8
BRANCH   7  12
ATOM     12  N   UNL     1      -1.802  -8.501 -25.928  1.00  0.00    -0.318 NA
ATOM     13  H   UNL     1      -0.969  -7.902 -25.930  1.00  0.00     0.119 HD
ATOM     14  H   UNL     1      -1.536  -9.240 -25.269  1.00  0.00     0.119 HD
ENDBRANCH   7  12
ENDBRANCH   1   7
TORSDOF 7
ENDMDL
