MODEL 1
REMARK VINA RESULT:      -5.2      0.000      0.000
REMARK SMILES C=CCSC[C@H](N)C(=O)O
REMARK SMILES IDX 5 1 4 2 3 3 2 4 1 5 6 6 8 7 9 8 10 9 7 11
REMARK H PARENT 10 10 7 12 7 13
ROOT
ATOM      1  C   UNL     1       0.399  -9.951 -26.713  1.00  0.00     0.100 C 
ENDROOT
BRANCH   1   2
ATOM      2  S   UNL     1      -1.059  -8.847 -26.690  1.00  0.00    -0.156 SA
BRANCH   2   3
ATOM      3  C   UNL     1      -2.126  -9.796 -27.813  1.00  0.00     0.096 C 
BRANCH   3   4
ATOM      4  C   UNL     1      -3.476  -9.150 -27.859  1.00  0.00    -0.024 C 
ATOM      5  C   UNL     1      -4.573  -9.644 -27.268  1.00  0.00     0.005 C 
ENDBRANCH   3   4
ENDBRANCH   2   3
ENDBRANCH   1   2
BRANCH   1   6
ATOM      6  C   UNL     1       0.258 -11.087 -25.690  1.00  0.00     0.172 C 
BRANCH   6   7
ATOM      7  C   UNL     1       0.323 -12.437 -26.417  1.00  0.00     0.321 C 
ATOM      8  O   UNL     1      -0.524 -12.871 -27.180  1.00  0.00    -0.251 OA
BRANCH   7   9
ATOM      9  O   UNL     1       1.456 -13.112 -26.090  1.00  0.00    -0.480 OA
ATOM     10  H   UNL     1       1.272 -13.541 -25.216  1.00  0.00     0.296 HD
ENDBRANCH   7   9
ENDBRANCH   6   7
BRANCH   6  11
ATOM     11  N   UNL     1       1.317 -11.077 -24.626  1.00  0.00    -0.318 NA
ATOM     12  H   UNL     1       1.184 -11.947 -24.092  1.00  0.00     0.119 HD
ATOM     13  H   UNL     1       1.060 -10.360 -23.937  1.00  0.00     0.119 HD
ENDBRANCH   6  11
ENDBRANCH   1   6
TORSDOF 7
ENDMDL
MODEL 2
REMARK VINA RESULT:      -5.2      1.718      1.902
REMARK SMILES C=CCSC[C@H](N)C(=O)O
REMARK SMILES IDX 5 1 4 2 3 3 2 4 1 5 6 6 8 7 9 8 10 9 7 11
REMARK H PARENT 10 10 7 12 7 13
ROOT
ATOM      1  C   UNL     1      -1.498 -10.045 -26.225  1.00  0.00     0.100 C 
ENDROOT
BRANCH   1   2
ATOM      2  S   UNL     1      -2.039 -10.431 -27.929  1.00  0.00    -0.156 SA
BRANCH   2   3
ATOM      3  C   UNL     1      -3.117  -8.994 -28.196  1.00  0.00     0.096 C 
BRANCH   3   4
ATOM      4  C   UNL     1      -4.072  -8.885 -27.047  1.00  0.00    -0.024 C 
ATOM      5  C   UNL     1      -5.200  -9.598 -26.929  1.00  0.00     0.005 C 
ENDBRANCH   3   4
ENDBRANCH   2   3
ENDBRANCH   1   2
BRANCH   1   6
ATOM      6  C   UNL     1       0.027  -9.892 -26.143  1.00  0.00     0.172 C 
BRANCH   6   7
ATOM      7  C   UNL     1       0.645 -11.209 -25.656  1.00  0.00     0.321 C 
ATOM      8  O   UNL     1       0.535 -12.290 -26.211  1.00  0.00    -0.251 OA
BRANCH   7   9
ATOM      9  O   UNL     1       1.333 -11.027 -24.498  1.00  0.00    -0.480 OA
ATOM     10  H   UNL     1       1.007 -11.726 -23.877  1.00  0.00     0.296 HD
ENDBRANCH   7   9
ENDBRANCH   6   7
BRANCH   6  11
ATOM     11  N   UNL     1       0.669  -9.529 -27.450  1.00  0.00    -0.318 NA
ATOM     12  H   UNL     1       1.086  -8.600 -27.309  1.00  0.00     0.119 HD
ATOM     13  H   UNL     1      -0.082  -9.330 -28.121  1.00  0.00     0.119 HD
ENDBRANCH   6  11
ENDBRANCH   1   6
TORSDOF 7
ENDMDL
MODEL 3
REMARK VINA RESULT:      -5.0     13.460     14.393
REMARK SMILES C=CCSC[C@H](N)C(=O)O
REMARK SMILES IDX 5 1 4 2 3 3 2 4 1 5 6 6 8 7 9 8 10 9 7 11
REMARK H PARENT 10 10 7 12 7 13
ROOT
ATOM      1  C   UNL     1       6.322  -1.427 -19.163  1.00  0.00     0.100 C 
ENDROOT
BRANCH   1   2
ATOM      2  S   UNL     1       7.031  -2.720 -20.245  1.00  0.00    -0.156 SA
BRANCH   2   3
ATOM      3  C   UNL     1       5.536  -3.116 -21.198  1.00  0.00     0.096 C 
BRANCH   3   4
ATOM      4  C   UNL     1       5.346  -2.074 -22.257  1.00  0.00    -0.024 C 
ATOM      5  C   UNL     1       4.552  -2.216 -23.327  1.00  0.00     0.005 C 
ENDBRANCH   3   4
ENDBRANCH   2   3
ENDBRANCH   1   2
BRANCH   1   6
ATOM      6  C   UNL     1       7.421  -0.648 -18.427  1.00  0.00     0.172 C 
BRANCH   6   7
ATOM      7  C   UNL     1       6.996  -0.426 -16.969  1.00  0.00     0.321 C 
ATOM      8  O   UNL     1       6.424  -1.243 -16.266  1.00  0.00    -0.251 OA
BRANCH   7   9
ATOM      9  O   UNL     1       7.329   0.823 -16.549  1.00  0.00    -0.480 OA
ATOM     10  H   UNL     1       8.029   0.699 -15.859  1.00  0.00     0.296 HD
ENDBRANCH   7   9
ENDBRANCH   6   7
BRANCH   6  11
ATOM     11  N   UNL     1       8.754  -1.340 -18.425  1.00  0.00    -0.318 NA
ATOM     12  H   UNL     1       8.741  -1.973 -19.235  1.00  0.00     0.119 HD
ATOM     13  H   UNL     1       8.762  -1.998 -17.636  1.00  0.00     0.119 HD
ENDBRANCH   6  11
ENDBRANCH   1   6
TORSDOF 7
ENDMDL
MODEL 4
REMARK VINA RESULT:      -4.5     14.993     15.959
REMARK SMILES C=CCSC[C@H](N)C(=O)O
REMARK SMILES IDX 5 1 4 2 3 3 2 4 1 5 6 6 8 7 9 8 10 9 7 11
REMARK H PARENT 10 10 7 12 7 13
ROOT
ATOM      1  C   UNL     1       7.723  -0.457 -18.004  1.00  0.00     0.100 C 
ENDROOT
BRANCH   1   2
ATOM      2  S   UNL     1       6.325  -1.589 -18.335  1.00  0.00    -0.156 SA
BRANCH   2   3
ATOM      3  C   UNL     1       6.897  -2.258 -19.925  1.00  0.00     0.096 C 
BRANCH   3   4
ATOM      4  C   UNL     1       5.997  -1.757 -21.012  1.00  0.00    -0.024 C 
ATOM      5  C   UNL     1       5.351  -2.544 -21.883  1.00  0.00     0.005 C 
ENDBRANCH   3   4
ENDBRANCH   2   3
ENDBRANCH   1   2
BRANCH   1   6
ATOM      6  C   UNL     1       7.591   0.208 -16.627  1.00  0.00     0.172 C 
BRANCH   6   7
ATOM      7  C   UNL     1       8.731  -0.273 -15.719  1.00  0.00     0.321 C 
ATOM      8  O   UNL     1       9.492   0.449 -15.096  1.00  0.00    -0.251 OA
BRANCH   7   9
ATOM      9  O   UNL     1       8.803  -1.630 -15.703  1.00  0.00    -0.480 OA
ATOM     10  H   UNL     1       8.337  -1.915 -14.876  1.00  0.00     0.296 HD
ENDBRANCH   7   9
ENDBRANCH   6   7
BRANCH   6  11
ATOM     11  N   UNL     1       7.633   1.708 -16.674  1.00  0.00    -0.318 NA
ATOM     12  H   UNL     1       7.641   1.956 -17.672  1.00  0.00     0.119 HD
ATOM     13  H   UNL     1       8.569   2.003 -16.370  1.00  0.00     0.119 HD
ENDBRANCH   6  11
ENDBRANCH   1   6
TORSDOF 7
ENDMDL
MODEL 5
REMARK VINA RESULT:      -4.4      2.593      3.052
REMARK SMILES C=CCSC[C@H](N)C(=O)O
REMARK SMILES IDX 5 1 4 2 3 3 2 4 1 5 6 6 8 7 9 8 10 9 7 11
REMARK H PARENT 10 10 7 12 7 13
ROOT
ATOM      1  C   UNL     1      -2.244 -10.833 -27.638  1.00  0.00     0.100 C 
ENDROOT
BRANCH   1   2
ATOM      2  S   UNL     1      -3.050  -9.297 -28.220  1.00  0.00    -0.156 SA
BRANCH   2   3
ATOM      3  C   UNL     1      -4.381  -9.213 -26.986  1.00  0.00     0.096 C 
BRANCH   3   4
ATOM      4  C   UNL     1      -5.071 -10.541 -26.928  1.00  0.00    -0.024 C 
ATOM      5  C   UNL     1      -5.842 -10.950 -25.912  1.00  0.00     0.005 C 
ENDBRANCH   3   4
ENDBRANCH   2   3
ENDBRANCH   1   2
BRANCH   1   6
ATOM      6  C   UNL     1      -0.717 -10.684 -27.600  1.00  0.00     0.172 C 
BRANCH   6   7
ATOM      7  C   UNL     1      -0.352  -9.357 -26.921  1.00  0.00     0.321 C 
ATOM      8  O   UNL     1      -0.930  -8.870 -25.964  1.00  0.00    -0.251 OA
BRANCH   7   9
ATOM      9  O   UNL     1       0.708  -8.769 -27.538  1.00  0.00    -0.480 OA
ATOM     10  H   UNL     1       0.760  -9.182 -28.437  1.00  0.00     0.296 HD
ENDBRANCH   7   9
ENDBRANCH   6   7
BRANCH   6  11
ATOM     11  N   UNL     1      -0.020 -11.792 -26.864  1.00  0.00    -0.318 NA
ATOM     12  H   UNL     1       0.923 -11.847 -27.271  1.00  0.00     0.119 HD
ATOM     13  H   UNL     1      -0.439 -12.679 -27.169  1.00  0.00     0.119 HD
ENDBRANCH   6  11
ENDBRANCH   1   6
TORSDOF 7
ENDMDL
MODEL 6
REMARK VINA RESULT:      -4.4     12.226     13.343
REMARK SMILES C=CCSC[C@H](N)C(=O)O
REMARK SMILES IDX 5 1 4 2 3 3 2 4 1 5 6 6 8 7 9 8 10 9 7 11
REMARK H PARENT 10 10 7 12 7 13
ROOT
ATOM      1  C   UNL     1      -5.675   0.087 -31.228  1.00  0.00     0.100 C 
ENDROOT
BRANCH   1   2
ATOM      2  S   UNL     1      -6.833   0.964 -32.339  1.00  0.00    -0.156 SA
BRANCH   2   3
ATOM      3  C   UNL     1      -8.183  -0.251 -32.326  1.00  0.00     0.096 C 
BRANCH   3   4
ATOM      4  C   UNL     1      -9.007  -0.072 -33.564  1.00  0.00    -0.024 C 
ATOM      5  C   UNL     1      -9.898   0.912 -33.746  1.00  0.00     0.005 C 
ENDBRANCH   3   4
ENDBRANCH   2   3
ENDBRANCH   1   2
BRANCH   1   6
ATOM      6  C   UNL     1      -4.275   0.717 -31.267  1.00  0.00     0.172 C 
BRANCH   6   7
ATOM      7  C   UNL     1      -3.217  -0.391 -31.178  1.00  0.00     0.321 C 
ATOM      8  O   UNL     1      -3.441  -1.565 -30.934  1.00  0.00    -0.251 OA
BRANCH   7   9
ATOM      9  O   UNL     1      -1.970   0.106 -31.394  1.00  0.00    -0.480 OA
ATOM     10  H   UNL     1      -2.076   1.091 -31.431  1.00  0.00     0.296 HD
ENDBRANCH   7   9
ENDBRANCH   6   7
BRANCH   6  11
ATOM     11  N   UNL     1      -4.008   1.519 -32.508  1.00  0.00    -0.318 NA
ATOM     12  H   UNL     1      -4.426   0.985 -33.281  1.00  0.00     0.119 HD
ATOM     13  H   UNL     1      -3.005   1.450 -32.713  1.00  0.00     0.119 HD
ENDBRANCH   6  11
ENDBRANCH   1   6
TORSDOF 7
ENDMDL
MODEL 7
REMARK VINA RESULT:      -4.4     13.216     14.835
REMARK SMILES C=CCSC[C@H](N)C(=O)O
REMARK SMILES IDX 5 1 4 2 3 3 2 4 1 5 6 6 8 7 9 8 10 9 7 11
REMARK H PARENT 10 10 7 12 7 13
ROOT
ATOM      1  C   UNL     1      -8.930  -0.868 -31.953  1.00  0.00     0.100 C 
ENDROOT
BRANCH   1   2
ATOM      2  S   UNL     1      -7.232  -0.510 -31.374  1.00  0.00    -0.156 SA
BRANCH   2   3
ATOM      3  C   UNL     1      -7.046  -1.902 -30.222  1.00  0.00     0.096 C 
BRANCH   3   4
ATOM      4  C   UNL     1      -8.251  -2.785 -30.332  1.00  0.00    -0.024 C 
ATOM      5  C   UNL     1      -8.214  -4.124 -30.313  1.00  0.00     0.005 C 
ENDBRANCH   3   4
ENDBRANCH   2   3
ENDBRANCH   1   2
BRANCH   1   6
ATOM      6  C   UNL     1      -9.862   0.332 -31.732  1.00  0.00     0.172 C 
BRANCH   6   7
ATOM      7  C   UNL     1     -10.570   0.675 -33.049  1.00  0.00     0.321 C 
ATOM      8  O   UNL     1     -10.766  -0.102 -33.970  1.00  0.00    -0.251 OA
BRANCH   7   9
ATOM      9  O   UNL     1     -10.949   1.980 -33.075  1.00  0.00    -0.480 OA
ATOM     10  H   UNL     1     -10.606   2.377 -32.234  1.00  0.00     0.296 HD
ENDBRANCH   7   9
ENDBRANCH   6   7
BRANCH   6  11
ATOM     11  N   UNL     1     -10.911   0.097 -30.684  1.00  0.00    -0.318 NA
ATOM     12  H   UNL     1     -10.950  -0.922 -30.551  1.00  0.00     0.119 HD
ATOM     13  H   UNL     1     -11.825   0.295 -31.109  1.00  0.00     0.119 HD
ENDBRANCH   6  11
ENDBRANCH   1   6
TORSDOF 7
ENDMDL
MODEL 8
REMARK VINA RESULT:      -4.3     15.129     16.405
REMARK SMILES C=CCSC[C@H](N)C(=O)O
REMARK SMILES IDX 5 1 4 2 3 3 2 4 1 5 6 6 8 7 9 8 10 9 7 11
REMARK H PARENT 10 10 7 12 7 13
ROOT
ATOM      1  C   UNL     1       8.064  -0.745 -18.528  1.00  0.00     0.100 C 
ENDROOT
BRANCH   1   2
ATOM      2  S   UNL     1       8.313   0.517 -17.227  1.00  0.00    -0.156 SA
BRANCH   2   3
ATOM      3  C   UNL     1       9.674  -0.290 -16.333  1.00  0.00     0.096 C 
BRANCH   3   4
ATOM      4  C   UNL     1      10.672   0.751 -15.930  1.00  0.00    -0.024 C 
ATOM      5  C   UNL     1      11.982   0.521 -15.764  1.00  0.00     0.005 C 
ENDBRANCH   3   4
ENDBRANCH   2   3
ENDBRANCH   1   2
BRANCH   1   6
ATOM      6  C   UNL     1       6.641  -1.318 -18.486  1.00  0.00     0.172 C 
BRANCH   6   7
ATOM      7  C   UNL     1       6.399  -2.169 -19.741  1.00  0.00     0.321 C 
ATOM      8  O   UNL     1       5.968  -1.754 -20.804  1.00  0.00    -0.251 OA
BRANCH   7   9
ATOM      9  O   UNL     1       6.715  -3.472 -19.516  1.00  0.00    -0.480 OA
ATOM     10  H   UNL     1       7.659  -3.472 -19.215  1.00  0.00     0.296 HD
ENDBRANCH   7   9
ENDBRANCH   6   7
BRANCH   6  11
ATOM     11  N   UNL     1       6.369  -2.174 -17.282  1.00  0.00    -0.318 NA
ATOM     12  H   UNL     1       5.988  -1.538 -16.569  1.00  0.00     0.119 HD
ATOM     13  H   UNL     1       7.274  -2.437 -16.877  1.00  0.00     0.119 HD
ENDBRANCH   6  11
ENDBRANCH   1   6
TORSDOF 7
ENDMDL
MODEL 9
REMARK VINA RESULT:      -4.3     16.093     17.076
REMARK SMILES C=CCSC[C@H](N)C(=O)O
REMARK SMILES IDX 5 1 4 2 3 3 2 4 1 5 6 6 8 7 9 8 10 9 7 11
REMARK H PARENT 10 10 7 12 7 13
ROOT
ATOM      1  C   UNL     1       8.338  -0.849 -16.609  1.00  0.00     0.100 C 
ENDROOT
BRANCH   1   2
ATOM      2  S   UNL     1       8.234  -0.490 -18.399  1.00  0.00    -0.156 SA
BRANCH   2   3
ATOM      3  C   UNL     1       6.669  -1.343 -18.750  1.00  0.00     0.096 C 
BRANCH   3   4
ATOM      4  C   UNL     1       6.855  -2.223 -19.947  1.00  0.00    -0.024 C 
ATOM      5  C   UNL     1       5.951  -2.375 -20.924  1.00  0.00     0.005 C 
ENDBRANCH   3   4
ENDBRANCH   2   3
ENDBRANCH   1   2
BRANCH   1   6
ATOM      6  C   UNL     1       8.677   0.413 -15.803  1.00  0.00     0.172 C 
BRANCH   6   7
ATOM      7  C   UNL     1      10.182   0.694 -15.908  1.00  0.00     0.321 C 
ATOM      8  O   UNL     1      11.067  -0.137 -15.784  1.00  0.00    -0.251 OA
BRANCH   7   9
ATOM      9  O   UNL     1      10.418   2.011 -16.145  1.00  0.00    -0.480 OA
ATOM     10  H   UNL     1      10.688   2.070 -17.097  1.00  0.00     0.296 HD
ENDBRANCH   7   9
ENDBRANCH   6   7
BRANCH   6  11
ATOM     11  N   UNL     1       7.940   1.639 -16.261  1.00  0.00    -0.318 NA
ATOM     12  H   UNL     1       8.143   1.727 -17.266  1.00  0.00     0.119 HD
ATOM     13  H   UNL     1       8.423   2.456 -15.870  1.00  0.00     0.119 HD
ENDBRANCH   6  11
ENDBRANCH   1   6
TORSDOF 7
ENDMDL
MODEL 10
REMARK VINA RESULT:      -4.2     13.460     15.077
REMARK SMILES C=CCSC[C@H](N)C(=O)O
REMARK SMILES IDX 5 1 4 2 3 3 2 4 1 5 6 6 8 7 9 8 10 9 7 11
REMARK H PARENT 10 10 7 12 7 13
ROOT
ATOM      1  C   UNL     1      -8.591  -0.676 -32.226  1.00  0.00     0.100 C 
ENDROOT
BRANCH   1   2
ATOM      2  S   UNL     1      -7.843   0.028 -30.713  1.00  0.00    -0.156 SA
BRANCH   2   3
ATOM      3  C   UNL     1      -6.104  -0.352 -31.076  1.00  0.00     0.096 C 
BRANCH   3   4
ATOM      4  C   UNL     1      -5.519  -1.096 -29.916  1.00  0.00    -0.024 C 
ATOM      5  C   UNL     1      -4.282  -1.611 -29.892  1.00  0.00     0.005 C 
ENDBRANCH   3   4
ENDBRANCH   2   3
ENDBRANCH   1   2
BRANCH   1   6
ATOM      6  C   UNL     1      -9.036   0.428 -33.196  1.00  0.00     0.172 C 
BRANCH   6   7
ATOM      7  C   UNL     1     -10.551   0.638 -33.067  1.00  0.00     0.321 C 
ATOM      8  O   UNL     1     -11.389  -0.248 -33.050  1.00  0.00    -0.251 OA
BRANCH   7   9
ATOM      9  O   UNL     1     -10.855   1.960 -32.988  1.00  0.00    -0.480 OA
ATOM     10  H   UNL     1     -10.066   2.441 -33.348  1.00  0.00     0.296 HD
ENDBRANCH   7   9
ENDBRANCH   6   7
BRANCH   6  11
ATOM     11  N   UNL     1      -8.360   1.748 -32.962  1.00  0.00    -0.318 NA
ATOM     12  H   UNL     1      -8.307   2.202 -33.883  1.00  0.00     0.119 HD
ATOM     13  H   UNL     1      -7.371   1.559 -32.757  1.00  0.00     0.119 HD
ENDBRANCH   6  11
ENDBRANCH   1   6
TORSDOF 7
ENDMDL
