MODEL 1
REMARK VINA RESULT:      -5.9      0.000      0.000
REMARK SMILES C/C=C/[S@@](=O)C[C@H](N)C(=O)O
REMARK SMILES IDX 6 1 4 2 5 3 3 4 2 5 1 6 7 7 9 8 10 9 11 10 8 12
REMARK H PARENT 11 11 8 13 8 14
ROOT
ATOM      1  C   UNL     1      -3.773 -10.551 -26.995  1.00  0.00     0.140 C 
ENDROOT
BRANCH   1   2
ATOM      2  S   UNL     1      -2.869  -8.990 -27.312  1.00  0.00     0.047 S 
ATOM      3  O   UNL     1      -3.016  -8.714 -28.779  1.00  0.00    -0.255 OA
BRANCH   2   4
ATOM      4  C   UNL     1      -1.209  -9.637 -27.153  1.00  0.00     0.070 C 
ATOM      5  C   UNL     1      -0.781 -10.005 -25.937  1.00  0.00    -0.021 C 
ATOM      6  C   UNL     1       0.593 -10.528 -25.670  1.00  0.00     0.036 C 
ENDBRANCH   2   4
ENDBRANCH   1   2
BRANCH   1   7
ATOM      7  C   UNL     1      -5.290 -10.406 -27.135  1.00  0.00     0.175 C 
BRANCH   7   8
ATOM      8  C   UNL     1      -6.045 -11.393 -26.233  1.00  0.00     0.321 C 
ATOM      9  O   UNL     1      -6.060 -11.372 -25.014  1.00  0.00    -0.251 OA
BRANCH   8  10
ATOM     10  O   UNL     1      -6.770 -12.289 -26.952  1.00  0.00    -0.480 OA
ATOM     11  H   UNL     1      -7.084 -13.049 -26.425  1.00  0.00     0.296 HD
ENDBRANCH   8  10
ENDBRANCH   7   8
BRANCH   7  12
ATOM     12  N   UNL     1      -5.722  -9.024 -26.803  1.00  0.00    -0.318 NA
ATOM     13  H   UNL     1      -5.427  -8.806 -25.846  1.00  0.00     0.119 HD
ATOM     14  H   UNL     1      -6.738  -8.951 -26.780  1.00  0.00     0.119 HD
ENDBRANCH   7  12
ENDBRANCH   1   7
TORSDOF 6
ENDMDL
MODEL 2
REMARK VINA RESULT:      -5.7      3.182      5.206
REMARK SMILES C/C=C/[S@@](=O)C[C@H](N)C(=O)O
REMARK SMILES IDX 6 1 4 2 5 3 3 4 2 5 1 6 7 7 9 8 10 9 11 10 8 12
REMARK H PARENT 11 11 8 13 8 14
ROOT
ATOM      1  C   UNL     1      -1.461  -9.316 -26.329  1.00  0.00     0.140 C 
ENDROOT
BRANCH   1   2
ATOM      2  S   UNL     1      -2.165  -9.698 -27.977  1.00  0.00     0.047 S 
ATOM      3  O   UNL     1      -2.786  -8.424 -28.470  1.00  0.00    -0.255 OA
BRANCH   2   4
ATOM      4  C   UNL     1      -3.555 -10.677 -27.423  1.00  0.00     0.070 C 
ATOM      5  C   UNL     1      -4.632 -10.040 -26.940  1.00  0.00    -0.021 C 
ATOM      6  C   UNL     1      -5.841 -10.745 -26.416  1.00  0.00     0.036 C 
ENDBRANCH   2   4
ENDBRANCH   1   2
BRANCH   1   7
ATOM      7  C   UNL     1       0.055  -9.517 -26.262  1.00  0.00     0.175 C 
BRANCH   7   8
ATOM      8  C   UNL     1       0.425 -10.960 -25.891  1.00  0.00     0.321 C 
ATOM      9  O   UNL     1       0.174 -11.950 -26.557  1.00  0.00    -0.251 OA
BRANCH   8  10
ATOM     10  O   UNL     1       1.136 -11.024 -24.736  1.00  0.00    -0.480 OA
ATOM     11  H   UNL     1       0.915 -11.798 -24.183  1.00  0.00     0.296 HD
ENDBRANCH   8  10
ENDBRANCH   7   8
BRANCH   7  12
ATOM     12  N   UNL     1       0.691  -9.175 -27.559  1.00  0.00    -0.318 NA
ATOM     13  H   UNL     1       0.959 -10.042 -28.035  1.00  0.00     0.119 HD
ATOM     14  H   UNL     1       1.571  -8.678 -27.419  1.00  0.00     0.119 HD
ENDBRANCH   7  12
ENDBRANCH   1   7
TORSDOF 6
ENDMDL
MODEL 3
REMARK VINA RESULT:      -5.6     14.039     15.748
REMARK SMILES C/C=C/[S@@](=O)C[C@H](N)C(=O)O
REMARK SMILES IDX 6 1 4 2 5 3 3 4 2 5 1 6 7 7 9 8 10 9 11 10 8 12
REMARK H PARENT 11 11 8 13 8 14
ROOT
ATOM      1  C   UNL     1       6.501  -1.281 -19.632  1.00  0.00     0.140 C 
ENDROOT
BRANCH   1   2
ATOM      2  S   UNL     1       6.506  -3.081 -19.969  1.00  0.00     0.047 S 
ATOM      3  O   UNL     1       7.817  -3.376 -20.637  1.00  0.00    -0.255 OA
BRANCH   2   4
ATOM      4  C   UNL     1       5.324  -3.077 -21.312  1.00  0.00     0.070 C 
ATOM      5  C   UNL     1       5.432  -2.130 -22.255  1.00  0.00    -0.021 C 
ATOM      6  C   UNL     1       4.488  -2.001 -23.406  1.00  0.00     0.036 C 
ENDBRANCH   2   4
ENDBRANCH   1   2
BRANCH   1   7
ATOM      7  C   UNL     1       7.469  -0.875 -18.517  1.00  0.00     0.175 C 
BRANCH   7   8
ATOM      8  C   UNL     1       6.985  -1.349 -17.140  1.00  0.00     0.321 C 
ATOM      9  O   UNL     1       5.822  -1.527 -16.818  1.00  0.00    -0.251 OA
BRANCH   8  10
ATOM     10  O   UNL     1       8.019  -1.616 -16.300  1.00  0.00    -0.480 OA
ATOM     11  H   UNL     1       8.018  -1.067 -15.493  1.00  0.00     0.296 HD
ENDBRANCH   8  10
ENDBRANCH   7   8
BRANCH   7  12
ATOM     12  N   UNL     1       8.824  -1.428 -18.768  1.00  0.00    -0.318 NA
ATOM     13  H   UNL     1       8.780  -2.450 -18.712  1.00  0.00     0.119 HD
ATOM     14  H   UNL     1       9.474  -1.159 -18.029  1.00  0.00     0.119 HD
ENDBRANCH   7  12
ENDBRANCH   1   7
TORSDOF 6
ENDMDL
MODEL 4
REMARK VINA RESULT:      -5.5      2.138      2.681
REMARK SMILES C/C=C/[S@@](=O)C[C@H](N)C(=O)O
REMARK SMILES IDX 6 1 4 2 5 3 3 4 2 5 1 6 7 7 9 8 10 9 11 10 8 12
REMARK H PARENT 11 11 8 13 8 14
ROOT
ATOM      1  C   UNL     1      -1.840 -10.575 -27.467  1.00  0.00     0.140 C 
ENDROOT
BRANCH   1   2
ATOM      2  S   UNL     1      -0.937  -9.366 -26.429  1.00  0.00     0.047 S 
ATOM      3  O   UNL     1      -0.068  -8.580 -27.366  1.00  0.00    -0.255 OA
BRANCH   2   4
ATOM      4  C   UNL     1       0.190 -10.515 -25.648  1.00  0.00     0.070 C 
ATOM      5  C   UNL     1       0.184 -11.792 -26.056  1.00  0.00    -0.021 C 
ATOM      6  C   UNL     1       1.052 -12.853 -25.461  1.00  0.00     0.036 C 
ENDBRANCH   2   4
ENDBRANCH   1   2
BRANCH   1   7
ATOM      7  C   UNL     1      -3.097  -9.989 -28.116  1.00  0.00     0.175 C 
BRANCH   7   8
ATOM      8  C   UNL     1      -4.302 -10.025 -27.166  1.00  0.00     0.321 C 
ATOM      9  O   UNL     1      -4.930 -11.022 -26.854  1.00  0.00    -0.251 OA
BRANCH   8  10
ATOM     10  O   UNL     1      -4.574  -8.802 -26.641  1.00  0.00    -0.480 OA
ATOM     11  H   UNL     1      -4.111  -8.627 -25.799  1.00  0.00     0.296 HD
ENDBRANCH   8  10
ENDBRANCH   7   8
BRANCH   7  12
ATOM     12  N   UNL     1      -2.864  -8.587 -28.546  1.00  0.00    -0.318 NA
ATOM     13  H   UNL     1      -3.665  -8.274 -29.103  1.00  0.00     0.119 HD
ATOM     14  H   UNL     1      -2.070  -8.523 -29.182  1.00  0.00     0.119 HD
ENDBRANCH   7  12
ENDBRANCH   1   7
TORSDOF 6
ENDMDL
MODEL 5
REMARK VINA RESULT:      -5.5     12.434     13.473
REMARK SMILES C/C=C/[S@@](=O)C[C@H](N)C(=O)O
REMARK SMILES IDX 6 1 4 2 5 3 3 4 2 5 1 6 7 7 9 8 10 9 11 10 8 12
REMARK H PARENT 11 11 8 13 8 14
ROOT
ATOM      1  C   UNL     1       5.274  -0.799 -24.624  1.00  0.00     0.140 C 
ENDROOT
BRANCH   1   2
ATOM      2  S   UNL     1       4.501  -2.190 -23.718  1.00  0.00     0.047 S 
ATOM      3  O   UNL     1       3.077  -1.786 -23.473  1.00  0.00    -0.255 OA
BRANCH   2   4
ATOM      4  C   UNL     1       5.306  -1.927 -22.143  1.00  0.00     0.070 C 
ATOM      5  C   UNL     1       5.673  -3.000 -21.427  1.00  0.00    -0.021 C 
ATOM      6  C   UNL     1       6.322  -2.912 -20.083  1.00  0.00     0.036 C 
ENDBRANCH   2   4
ENDBRANCH   1   2
BRANCH   1   7
ATOM      7  C   UNL     1       4.568  -0.474 -25.943  1.00  0.00     0.175 C 
BRANCH   7   8
ATOM      8  C   UNL     1       5.547   0.051 -27.002  1.00  0.00     0.321 C 
ATOM      9  O   UNL     1       5.479  -0.164 -28.201  1.00  0.00    -0.251 OA
BRANCH   8  10
ATOM     10  O   UNL     1       6.498   0.858 -26.463  1.00  0.00    -0.480 OA
ATOM     11  H   UNL     1       6.133   1.586 -25.924  1.00  0.00     0.296 HD
ENDBRANCH   8  10
ENDBRANCH   7   8
BRANCH   7  12
ATOM     12  N   UNL     1       3.875  -1.672 -26.480  1.00  0.00    -0.318 NA
ATOM     13  H   UNL     1       2.937  -1.401 -26.792  1.00  0.00     0.119 HD
ATOM     14  H   UNL     1       3.710  -2.362 -25.748  1.00  0.00     0.119 HD
ENDBRANCH   7  12
ENDBRANCH   1   7
TORSDOF 6
ENDMDL
MODEL 6
REMARK VINA RESULT:      -5.0      4.061      5.531
REMARK SMILES C/C=C/[S@@](=O)C[C@H](N)C(=O)O
REMARK SMILES IDX 6 1 4 2 5 3 3 4 2 5 1 6 7 7 9 8 10 9 11 10 8 12
REMARK H PARENT 11 11 8 13 8 14
ROOT
ATOM      1  C   UNL     1      -0.249 -10.340 -25.807  1.00  0.00     0.140 C 
ENDROOT
BRANCH   1   2
ATOM      2  S   UNL     1      -0.762  -9.500 -27.351  1.00  0.00     0.047 S 
ATOM      3  O   UNL     1      -0.032  -8.190 -27.375  1.00  0.00    -0.255 OA
BRANCH   2   4
ATOM      4  C   UNL     1      -2.422  -9.066 -26.847  1.00  0.00     0.070 C 
ATOM      5  C   UNL     1      -3.451  -9.720 -27.406  1.00  0.00    -0.021 C 
ATOM      6  C   UNL     1      -4.883  -9.427 -27.094  1.00  0.00     0.036 C 
ENDBRANCH   2   4
ENDBRANCH   1   2
BRANCH   1   7
ATOM      7  C   UNL     1       0.538 -11.630 -26.058  1.00  0.00     0.175 C 
BRANCH   7   8
ATOM      8  C   UNL     1       0.938 -12.320 -24.746  1.00  0.00     0.321 C 
ATOM      9  O   UNL     1       0.636 -13.455 -24.420  1.00  0.00    -0.251 OA
BRANCH   8  10
ATOM     10  O   UNL     1       1.741 -11.535 -23.981  1.00  0.00    -0.480 OA
ATOM     11  H   UNL     1       1.256 -10.858 -23.472  1.00  0.00     0.296 HD
ENDBRANCH   8  10
ENDBRANCH   7   8
BRANCH   7  12
ATOM     12  N   UNL     1      -0.255 -12.580 -26.879  1.00  0.00    -0.318 NA
ATOM     13  H   UNL     1      -0.830 -13.156 -26.256  1.00  0.00     0.119 HD
ATOM     14  H   UNL     1       0.350 -13.247 -27.358  1.00  0.00     0.119 HD
ENDBRANCH   7  12
ENDBRANCH   1   7
TORSDOF 6
ENDMDL
MODEL 7
REMARK VINA RESULT:      -4.8      2.926      4.972
REMARK SMILES C/C=C/[S@@](=O)C[C@H](N)C(=O)O
REMARK SMILES IDX 6 1 4 2 5 3 3 4 2 5 1 6 7 7 9 8 10 9 11 10 8 12
REMARK H PARENT 11 11 8 13 8 14
ROOT
ATOM      1  C   UNL     1      -2.881 -10.639 -27.404  1.00  0.00     0.140 C 
ENDROOT
BRANCH   1   2
ATOM      2  S   UNL     1      -4.001  -9.207 -27.623  1.00  0.00     0.047 S 
ATOM      3  O   UNL     1      -3.483  -8.130 -26.716  1.00  0.00    -0.255 OA
BRANCH   2   4
ATOM      4  C   UNL     1      -5.413  -9.872 -26.750  1.00  0.00     0.070 C 
ATOM      5  C   UNL     1      -5.379 -11.155 -26.364  1.00  0.00    -0.021 C 
ATOM      6  C   UNL     1      -6.507 -11.835 -25.658  1.00  0.00     0.036 C 
ENDBRANCH   2   4
ENDBRANCH   1   2
BRANCH   1   7
ATOM      7  C   UNL     1      -1.456 -10.368 -27.894  1.00  0.00     0.175 C 
BRANCH   7   8
ATOM      8  C   UNL     1      -0.572  -9.778 -26.786  1.00  0.00     0.321 C 
ATOM      9  O   UNL     1       0.474  -9.175 -26.957  1.00  0.00    -0.251 OA
BRANCH   8  10
ATOM     10  O   UNL     1      -1.118  -9.948 -25.553  1.00  0.00    -0.480 OA
ATOM     11  H   UNL     1      -1.536 -10.821 -25.428  1.00  0.00     0.296 HD
ENDBRANCH   8  10
ENDBRANCH   7   8
BRANCH   7  12
ATOM     12  N   UNL     1      -0.826 -11.613 -28.400  1.00  0.00    -0.318 NA
ATOM     13  H   UNL     1      -1.380 -12.416 -28.087  1.00  0.00     0.119 HD
ATOM     14  H   UNL     1       0.093 -11.758 -27.982  1.00  0.00     0.119 HD
ENDBRANCH   7  12
ENDBRANCH   1   7
TORSDOF 6
ENDMDL
MODEL 8
REMARK VINA RESULT:      -4.8     16.465     18.254
REMARK SMILES C/C=C/[S@@](=O)C[C@H](N)C(=O)O
REMARK SMILES IDX 6 1 4 2 5 3 3 4 2 5 1 6 7 7 9 8 10 9 11 10 8 12
REMARK H PARENT 11 11 8 13 8 14
ROOT
ATOM      1  C   UNL     1       8.368  -0.157 -17.783  1.00  0.00     0.140 C 
ENDROOT
BRANCH   1   2
ATOM      2  S   UNL     1       6.596  -0.614 -17.848  1.00  0.00     0.047 S 
ATOM      3  O   UNL     1       6.318  -1.385 -16.592  1.00  0.00    -0.255 OA
BRANCH   2   4
ATOM      4  C   UNL     1       6.719  -1.872 -19.114  1.00  0.00     0.070 C 
ATOM      5  C   UNL     1       5.975  -1.739 -20.221  1.00  0.00    -0.021 C 
ATOM      6  C   UNL     1       5.964  -2.737 -21.333  1.00  0.00     0.036 C 
ENDBRANCH   2   4
ENDBRANCH   1   2
BRANCH   1   7
ATOM      7  C   UNL     1       8.812   0.332 -16.401  1.00  0.00     0.175 C 
BRANCH   7   8
ATOM      8  C   UNL     1       9.685  -0.706 -15.681  1.00  0.00     0.321 C 
ATOM      9  O   UNL     1      10.864  -0.570 -15.402  1.00  0.00    -0.251 OA
BRANCH   8  10
ATOM     10  O   UNL     1       8.976  -1.806 -15.318  1.00  0.00    -0.480 OA
ATOM     11  H   UNL     1       8.188  -1.602 -14.778  1.00  0.00     0.296 HD
ENDBRANCH   8  10
ENDBRANCH   7   8
BRANCH   7  12
ATOM     12  N   UNL     1       9.568   1.605 -16.510  1.00  0.00    -0.318 NA
ATOM     13  H   UNL     1       9.932   1.694 -17.463  1.00  0.00     0.119 HD
ATOM     14  H   UNL     1      10.399   1.592 -15.918  1.00  0.00     0.119 HD
ENDBRANCH   7  12
ENDBRANCH   1   7
TORSDOF 6
ENDMDL
MODEL 9
REMARK VINA RESULT:      -4.8     11.061     12.392
REMARK SMILES C/C=C/[S@@](=O)C[C@H](N)C(=O)O
REMARK SMILES IDX 6 1 4 2 5 3 3 4 2 5 1 6 7 7 9 8 10 9 11 10 8 12
REMARK H PARENT 11 11 8 13 8 14
ROOT
ATOM      1  C   UNL     1      -8.708  -0.638 -31.883  1.00  0.00     0.140 C 
ENDROOT
BRANCH   1   2
ATOM      2  S   UNL     1      -7.471  -0.645 -30.533  1.00  0.00     0.047 S 
ATOM      3  O   UNL     1      -6.137  -0.838 -31.191  1.00  0.00    -0.255 OA
BRANCH   2   4
ATOM      4  C   UNL     1      -7.862  -2.254 -29.858  1.00  0.00     0.070 C 
ATOM      5  C   UNL     1      -8.504  -3.135 -30.638  1.00  0.00    -0.021 C 
ATOM      6  C   UNL     1      -8.915  -4.497 -30.180  1.00  0.00     0.036 C 
ENDBRANCH   2   4
ENDBRANCH   1   2
BRANCH   1   7
ATOM      7  C   UNL     1      -9.789   0.432 -31.703  1.00  0.00     0.175 C 
BRANCH   7   8
ATOM      8  C   UNL     1     -10.528   0.725 -33.017  1.00  0.00     0.321 C 
ATOM      9  O   UNL     1     -10.755  -0.085 -33.900  1.00  0.00    -0.251 OA
BRANCH   8  10
ATOM     10  O   UNL     1     -10.974   2.007 -33.076  1.00  0.00    -0.480 OA
ATOM     11  H   UNL     1     -11.638   2.222 -32.393  1.00  0.00     0.296 HD
ENDBRANCH   8  10
ENDBRANCH   7   8
BRANCH   7  12
ATOM     12  N   UNL     1     -10.778   0.016 -30.677  1.00  0.00    -0.318 NA
ATOM     13  H   UNL     1     -10.670  -0.988 -30.501  1.00  0.00     0.119 HD
ATOM     14  H   UNL     1     -11.732   0.114 -31.023  1.00  0.00     0.119 HD
ENDBRANCH   7  12
ENDBRANCH   1   7
TORSDOF 6
ENDMDL
MODEL 10
REMARK VINA RESULT:      -4.7     11.354     13.045
REMARK SMILES C/C=C/[S@@](=O)C[C@H](N)C(=O)O
REMARK SMILES IDX 6 1 4 2 5 3 3 4 2 5 1 6 7 7 9 8 10 9 11 10 8 12
REMARK H PARENT 11 11 8 13 8 14
ROOT
ATOM      1  C   UNL     1      -5.771  -0.018 -31.074  1.00  0.00     0.140 C 
ENDROOT
BRANCH   1   2
ATOM      2  S   UNL     1      -6.542   1.163 -32.243  1.00  0.00     0.047 S 
ATOM      3  O   UNL     1      -7.076   2.288 -31.408  1.00  0.00    -0.255 OA
BRANCH   2   4
ATOM      4  C   UNL     1      -7.989   0.192 -32.646  1.00  0.00     0.070 C 
ATOM      5  C   UNL     1      -8.975   0.775 -33.342  1.00  0.00    -0.021 C 
ATOM      6  C   UNL     1     -10.247   0.082 -33.710  1.00  0.00     0.036 C 
ENDBRANCH   2   4
ENDBRANCH   1   2
BRANCH   1   7
ATOM      7  C   UNL     1      -4.400   0.442 -30.573  1.00  0.00     0.175 C 
BRANCH   7   8
ATOM      8  C   UNL     1      -3.282  -0.517 -31.006  1.00  0.00     0.321 C 
ATOM      9  O   UNL     1      -3.363  -1.733 -31.039  1.00  0.00    -0.251 OA
BRANCH   8  10
ATOM     10  O   UNL     1      -2.172   0.147 -31.421  1.00  0.00    -0.480 OA
ATOM     11  H   UNL     1      -2.215   0.437 -32.353  1.00  0.00     0.296 HD
ENDBRANCH   8  10
ENDBRANCH   7   8
BRANCH   7  12
ATOM     12  N   UNL     1      -4.085   1.805 -31.070  1.00  0.00    -0.318 NA
ATOM     13  H   UNL     1      -4.383   2.490 -30.370  1.00  0.00     0.119 HD
ATOM     14  H   UNL     1      -4.634   2.031 -31.899  1.00  0.00     0.119 HD
ENDBRANCH   7  12
ENDBRANCH   1   7
TORSDOF 6
ENDMDL
