MODEL 1
REMARK VINA RESULT:      -4.4      0.000      0.000
REMARK SMILES C[SH](C)[C@@H](N)C(=O)O
REMARK SMILES IDX 6 1 7 2 4 3 2 4 1 5 3 6 5 8 8 11
REMARK H PARENT 2 7 5 9 5 10 8 12
ROOT
ATOM      1  C   UNL     1      -2.948 -10.118 -27.953  1.00  0.00     0.329 C 
ATOM      2  O   UNL     1      -3.852 -10.711 -27.388  1.00  0.00    -0.250 OA
ENDROOT
BRANCH   1   3
ATOM      3  C   UNL     1      -1.442 -10.444 -27.867  1.00  0.00     0.201 C 
BRANCH   3   4
ATOM      4  S   UNL     1      -0.639  -9.602 -26.528  1.00  0.00    -0.234 S 
ATOM      5  C   UNL     1       0.381 -10.791 -25.708  1.00  0.00     0.062 C 
ATOM      6  C   UNL     1       0.489  -8.442 -27.246  1.00  0.00     0.062 C 
ATOM      7  H   UNL     1      -1.508  -9.007 -25.692  1.00  0.00     0.084 HD
ENDBRANCH   3   4
BRANCH   3   8
ATOM      8  N   UNL     1      -1.290 -11.914 -27.728  1.00  0.00    -0.311 NA
ATOM      9  H   UNL     1      -0.403 -12.173 -28.175  1.00  0.00     0.120 HD
ATOM     10  H   UNL     1      -2.002 -12.353 -28.318  1.00  0.00     0.120 HD
ENDBRANCH   3   8
ENDBRANCH   1   3
BRANCH   1  11
ATOM     11  O   UNL     1      -3.160  -9.016 -28.728  1.00  0.00    -0.479 OA
ATOM     12  H   UNL     1      -3.675  -9.335 -29.510  1.00  0.00     0.296 HD
ENDBRANCH   1  11
TORSDOF 4
ENDMDL
MODEL 2
REMARK VINA RESULT:      -4.3      2.103      2.351
REMARK SMILES C[SH](C)[C@@H](N)C(=O)O
REMARK SMILES IDX 6 1 7 2 4 3 2 4 1 5 3 6 5 8 8 11
REMARK H PARENT 2 7 5 9 5 10 8 12
ROOT
ATOM      1  C   UNL     1      -4.546  -9.793 -26.987  1.00  0.00     0.329 C 
ATOM      2  O   UNL     1      -4.692 -11.003 -26.949  1.00  0.00    -0.250 OA
ENDROOT
BRANCH   1   3
ATOM      3  C   UNL     1      -3.245  -9.037 -27.334  1.00  0.00     0.201 C 
BRANCH   3   4
ATOM      4  S   UNL     1      -1.798  -9.847 -26.707  1.00  0.00    -0.234 S 
ATOM      5  C   UNL     1      -1.454 -11.202 -27.791  1.00  0.00     0.062 C 
ATOM      6  C   UNL     1      -0.443  -8.729 -26.919  1.00  0.00     0.062 C 
ATOM      7  H   UNL     1      -1.933 -10.236 -25.426  1.00  0.00     0.084 HD
ENDBRANCH   3   4
BRANCH   3   8
ATOM      8  N   UNL     1      -3.169  -8.894 -28.810  1.00  0.00    -0.311 NA
ATOM      9  H   UNL     1      -3.959  -9.415 -29.208  1.00  0.00     0.120 HD
ATOM     10  H   UNL     1      -2.346  -9.411 -29.126  1.00  0.00     0.120 HD
ENDBRANCH   3   8
ENDBRANCH   1   3
BRANCH   1  11
ATOM     11  O   UNL     1      -5.541  -8.919 -26.667  1.00  0.00    -0.479 OA
ATOM     12  H   UNL     1      -5.358  -8.102 -27.194  1.00  0.00     0.296 HD
ENDBRANCH   1  11
TORSDOF 4
ENDMDL
MODEL 3
REMARK VINA RESULT:      -4.3      2.821      3.476
REMARK SMILES C[SH](C)[C@@H](N)C(=O)O
REMARK SMILES IDX 6 1 7 2 4 3 2 4 1 5 3 6 5 8 8 11
REMARK H PARENT 2 7 5 9 5 10 8 12
ROOT
ATOM      1  C   UNL     1       0.308 -11.636 -25.952  1.00  0.00     0.329 C 
ATOM      2  O   UNL     1       0.962 -12.633 -26.208  1.00  0.00    -0.250 OA
ENDROOT
BRANCH   1   3
ATOM      3  C   UNL     1      -0.894 -11.096 -26.757  1.00  0.00     0.201 C 
BRANCH   3   4
ATOM      4  S   UNL     1      -1.103  -9.344 -26.575  1.00  0.00    -0.234 S 
ATOM      5  C   UNL     1       0.311  -8.576 -27.309  1.00  0.00     0.062 C 
ATOM      6  C   UNL     1      -2.468  -8.875 -27.599  1.00  0.00     0.062 C 
ATOM      7  H   UNL     1      -1.282  -8.972 -25.295  1.00  0.00     0.084 HD
ENDBRANCH   3   4
BRANCH   3   8
ATOM      8  N   UNL     1      -0.698 -11.456 -28.184  1.00  0.00    -0.311 NA
ATOM      9  H   UNL     1      -0.187 -10.684 -28.626  1.00  0.00     0.120 HD
ATOM     10  H   UNL     1      -1.616 -11.436 -28.635  1.00  0.00     0.120 HD
ENDBRANCH   3   8
ENDBRANCH   1   3
BRANCH   1  11
ATOM     11  O   UNL     1       0.597 -10.812 -24.906  1.00  0.00    -0.479 OA
ATOM     12  H   UNL     1       0.074  -9.987 -25.064  1.00  0.00     0.296 HD
ENDBRANCH   1  11
TORSDOF 4
ENDMDL
MODEL 4
REMARK VINA RESULT:      -4.2      1.826      2.348
REMARK SMILES C[SH](C)[C@@H](N)C(=O)O
REMARK SMILES IDX 6 1 7 2 4 3 2 4 1 5 3 6 5 8 8 11
REMARK H PARENT 2 7 5 9 5 10 8 12
ROOT
ATOM      1  C   UNL     1      -2.894  -8.812 -27.631  1.00  0.00     0.329 C 
ATOM      2  O   UNL     1      -3.040  -8.857 -28.841  1.00  0.00    -0.250 OA
ENDROOT
BRANCH   1   3
ATOM      3  C   UNL     1      -1.555  -8.870 -26.866  1.00  0.00     0.201 C 
BRANCH   3   4
ATOM      4  S   UNL     1      -1.148 -10.511 -26.329  1.00  0.00    -0.234 S 
ATOM      5  C   UNL     1      -1.152 -11.540 -27.767  1.00  0.00     0.062 C 
ATOM      6  C   UNL     1       0.537 -10.477 -25.789  1.00  0.00     0.062 C 
ATOM      7  H   UNL     1      -1.975 -10.964 -25.370  1.00  0.00     0.084 HD
ENDBRANCH   3   4
BRANCH   3   8
ATOM      8  N   UNL     1      -0.491  -8.326 -27.748  1.00  0.00    -0.311 NA
ATOM      9  H   UNL     1      -0.459  -8.917 -28.586  1.00  0.00     0.120 HD
ATOM     10  H   UNL     1       0.407  -8.500 -27.288  1.00  0.00     0.120 HD
ENDBRANCH   3   8
ENDBRANCH   1   3
BRANCH   1  11
ATOM     11  O   UNL     1      -3.944  -8.750 -26.763  1.00  0.00    -0.479 OA
ATOM     12  H   UNL     1      -4.645  -9.330 -27.151  1.00  0.00     0.296 HD
ENDBRANCH   1  11
TORSDOF 4
ENDMDL
MODEL 5
REMARK VINA RESULT:      -4.1     13.203     13.969
REMARK SMILES C[SH](C)[C@@H](N)C(=O)O
REMARK SMILES IDX 6 1 7 2 4 3 2 4 1 5 3 6 5 8 8 11
REMARK H PARENT 2 7 5 9 5 10 8 12
ROOT
ATOM      1  C   UNL     1     -10.560   0.687 -32.945  1.00  0.00     0.329 C 
ATOM      2  O   UNL     1     -11.364  -0.220 -33.082  1.00  0.00    -0.250 OA
ENDROOT
BRANCH   1   3
ATOM      3  C   UNL     1      -9.064   0.541 -32.592  1.00  0.00     0.201 C 
BRANCH   3   4
ATOM      4  S   UNL     1      -8.737  -0.884 -31.587  1.00  0.00    -0.234 S 
ATOM      5  C   UNL     1      -7.021  -0.833 -31.162  1.00  0.00     0.062 C 
ATOM      6  C   UNL     1      -9.599  -0.651 -30.059  1.00  0.00     0.062 C 
ATOM      7  H   UNL     1      -9.082  -2.035 -32.190  1.00  0.00     0.084 HD
ENDBRANCH   3   4
BRANCH   3   8
ATOM      8  N   UNL     1      -8.291   0.479 -33.859  1.00  0.00    -0.311 NA
ATOM      9  H   UNL     1      -8.651   1.219 -34.472  1.00  0.00     0.120 HD
ATOM     10  H   UNL     1      -8.551  -0.388 -34.335  1.00  0.00     0.120 HD
ENDBRANCH   3   8
ENDBRANCH   1   3
BRANCH   1  11
ATOM     11  O   UNL     1     -10.906   2.002 -33.042  1.00  0.00    -0.479 OA
ATOM     12  H   UNL     1     -10.960   2.333 -32.111  1.00  0.00     0.296 HD
ENDBRANCH   1  11
TORSDOF 4
ENDMDL
MODEL 6
REMARK VINA RESULT:      -4.0     13.347     14.073
REMARK SMILES C[SH](C)[C@@H](N)C(=O)O
REMARK SMILES IDX 6 1 7 2 4 3 2 4 1 5 3 6 5 8 8 11
REMARK H PARENT 2 7 5 9 5 10 8 12
ROOT
ATOM      1  C   UNL     1     -10.567   0.431 -33.080  1.00  0.00     0.329 C 
ATOM      2  O   UNL     1     -10.752  -0.136 -34.143  1.00  0.00    -0.250 OA
ENDROOT
BRANCH   1   3
ATOM      3  C   UNL     1      -9.939  -0.183 -31.810  1.00  0.00     0.201 C 
BRANCH   3   4
ATOM      4  S   UNL     1      -8.287   0.394 -31.519  1.00  0.00    -0.234 S 
ATOM      5  C   UNL     1      -7.334  -1.006 -31.009  1.00  0.00     0.062 C 
ATOM      6  C   UNL     1      -7.617   0.863 -33.089  1.00  0.00     0.062 C 
ATOM      7  H   UNL     1      -8.238   1.401 -30.629  1.00  0.00     0.084 HD
ENDBRANCH   3   4
BRANCH   3   8
ATOM      8  N   UNL     1     -10.818   0.136 -30.656  1.00  0.00    -0.311 NA
ATOM      9  H   UNL     1     -10.352   0.871 -30.112  1.00  0.00     0.120 HD
ATOM     10  H   UNL     1     -10.812  -0.675 -30.033  1.00  0.00     0.120 HD
ENDBRANCH   3   8
ENDBRANCH   1   3
BRANCH   1  11
ATOM     11  O   UNL     1     -10.949   1.720 -32.854  1.00  0.00    -0.479 OA
ATOM     12  H   UNL     1     -11.501   1.694 -32.034  1.00  0.00     0.296 HD
ENDBRANCH   1  11
TORSDOF 4
ENDMDL
MODEL 7
REMARK VINA RESULT:      -3.9      3.645      4.457
REMARK SMILES C[SH](C)[C@@H](N)C(=O)O
REMARK SMILES IDX 6 1 7 2 4 3 2 4 1 5 3 6 5 8 8 11
REMARK H PARENT 2 7 5 9 5 10 8 12
ROOT
ATOM      1  C   UNL     1       0.877 -12.710 -25.557  1.00  0.00     0.329 C 
ATOM      2  O   UNL     1       1.309 -13.546 -26.332  1.00  0.00    -0.250 OA
ENDROOT
BRANCH   1   3
ATOM      3  C   UNL     1       0.915 -11.178 -25.744  1.00  0.00     0.201 C 
BRANCH   3   4
ATOM      4  S   UNL     1      -0.653 -10.514 -26.241  1.00  0.00    -0.234 S 
ATOM      5  C   UNL     1      -0.349  -8.890 -26.873  1.00  0.00     0.062 C 
ATOM      6  C   UNL     1      -1.199 -11.458 -27.635  1.00  0.00     0.062 C 
ATOM      7  H   UNL     1      -1.557 -10.516 -25.245  1.00  0.00     0.084 HD
ENDBRANCH   3   4
BRANCH   3   8
ATOM      8  N   UNL     1       1.365 -10.564 -24.469  1.00  0.00    -0.311 NA
ATOM      9  H   UNL     1       0.699  -9.818 -24.238  1.00  0.00     0.120 HD
ATOM     10  H   UNL     1       2.238 -10.065 -24.660  1.00  0.00     0.120 HD
ENDBRANCH   3   8
ENDBRANCH   1   3
BRANCH   1  11
ATOM     11  O   UNL     1       0.325 -13.035 -24.353  1.00  0.00    -0.479 OA
ATOM     12  H   UNL     1      -0.153 -13.888 -24.502  1.00  0.00     0.296 HD
ENDBRANCH   1  11
TORSDOF 4
ENDMDL
MODEL 8
REMARK VINA RESULT:      -3.9      1.592      2.122
REMARK SMILES C[SH](C)[C@@H](N)C(=O)O
REMARK SMILES IDX 6 1 7 2 4 3 2 4 1 5 3 6 5 8 8 11
REMARK H PARENT 2 7 5 9 5 10 8 12
ROOT
ATOM      1  C   UNL     1      -2.857 -10.032 -27.755  1.00  0.00     0.329 C 
ATOM      2  O   UNL     1      -4.058 -10.233 -27.705  1.00  0.00    -0.250 OA
ENDROOT
BRANCH   1   3
ATOM      3  C   UNL     1      -1.895  -9.915 -26.553  1.00  0.00     0.201 C 
BRANCH   3   4
ATOM      4  S   UNL     1      -0.221 -10.319 -26.978  1.00  0.00    -0.234 S 
ATOM      5  C   UNL     1       0.636  -8.789 -27.209  1.00  0.00     0.062 C 
ATOM      6  C   UNL     1       0.517 -11.051 -25.545  1.00  0.00     0.062 C 
ATOM      7  H   UNL     1      -0.137 -11.122 -28.053  1.00  0.00     0.084 HD
ENDBRANCH   3   4
BRANCH   3   8
ATOM      8  N   UNL     1      -1.983  -8.533 -26.018  1.00  0.00    -0.311 NA
ATOM      9  H   UNL     1      -1.232  -8.425 -25.327  1.00  0.00     0.120 HD
ATOM     10  H   UNL     1      -2.840  -8.471 -25.464  1.00  0.00     0.120 HD
ENDBRANCH   3   8
ENDBRANCH   1   3
BRANCH   1  11
ATOM     11  O   UNL     1      -2.190  -9.829 -28.927  1.00  0.00    -0.479 OA
ATOM     12  H   UNL     1      -1.457 -10.493 -28.934  1.00  0.00     0.296 HD
ENDBRANCH   1  11
TORSDOF 4
ENDMDL
MODEL 9
REMARK VINA RESULT:      -3.9     10.466     11.203
REMARK SMILES C[SH](C)[C@@H](N)C(=O)O
REMARK SMILES IDX 6 1 7 2 4 3 2 4 1 5 3 6 5 8 8 11
REMARK H PARENT 2 7 5 9 5 10 8 12
ROOT
ATOM      1  C   UNL     1      -3.498   0.036 -31.302  1.00  0.00     0.329 C 
ATOM      2  O   UNL     1      -3.213  -1.115 -31.589  1.00  0.00    -0.250 OA
ENDROOT
BRANCH   1   3
ATOM      3  C   UNL     1      -3.887   0.564 -29.904  1.00  0.00     0.201 C 
BRANCH   3   4
ATOM      4  S   UNL     1      -2.947  -0.193 -28.604  1.00  0.00    -0.234 S 
ATOM      5  C   UNL     1      -2.072   1.103 -27.778  1.00  0.00     0.062 C 
ATOM      6  C   UNL     1      -4.105  -0.802 -27.412  1.00  0.00     0.062 C 
ATOM      7  H   UNL     1      -2.128  -1.162 -29.051  1.00  0.00     0.084 HD
ENDBRANCH   3   4
BRANCH   3   8
ATOM      8  N   UNL     1      -3.705   2.037 -29.895  1.00  0.00    -0.311 NA
ATOM      9  H   UNL     1      -4.141   2.403 -30.749  1.00  0.00     0.120 HD
ATOM     10  H   UNL     1      -2.708   2.224 -30.027  1.00  0.00     0.120 HD
ENDBRANCH   3   8
ENDBRANCH   1   3
BRANCH   1  11
ATOM     11  O   UNL     1      -3.558   1.034 -32.228  1.00  0.00    -0.479 OA
ATOM     12  H   UNL     1      -3.368   1.869 -31.732  1.00  0.00     0.296 HD
ENDBRANCH   1  11
TORSDOF 4
ENDMDL
MODEL 10
REMARK VINA RESULT:      -3.9     12.688     13.368
REMARK SMILES C[SH](C)[C@@H](N)C(=O)O
REMARK SMILES IDX 6 1 7 2 4 3 2 4 1 5 3 6 5 8 8 11
REMARK H PARENT 2 7 5 9 5 10 8 12
ROOT
ATOM      1  C   UNL     1     -10.579  -0.229 -32.016  1.00  0.00     0.329 C 
ATOM      2  O   UNL     1     -10.962   0.059 -30.895  1.00  0.00    -0.250 OA
ENDROOT
BRANCH   1   3
ATOM      3  C   UNL     1      -9.147  -0.642 -32.419  1.00  0.00     0.201 C 
BRANCH   3   4
ATOM      4  S   UNL     1      -7.926   0.532 -31.893  1.00  0.00    -0.234 S 
ATOM      5  C   UNL     1      -6.579  -0.392 -31.215  1.00  0.00     0.062 C 
ATOM      6  C   UNL     1      -7.276   1.295 -33.352  1.00  0.00     0.062 C 
ATOM      7  H   UNL     1      -8.415   1.437 -31.026  1.00  0.00     0.084 HD
ENDBRANCH   3   4
BRANCH   3   8
ATOM      8  N   UNL     1      -8.869  -1.982 -31.844  1.00  0.00    -0.311 NA
ATOM      9  H   UNL     1      -7.956  -1.931 -31.378  1.00  0.00     0.120 HD
ATOM     10  H   UNL     1      -8.713  -2.625 -32.624  1.00  0.00     0.120 HD
ENDBRANCH   3   8
ENDBRANCH   1   3
BRANCH   1  11
ATOM     11  O   UNL     1     -11.391  -0.174 -33.110  1.00  0.00    -0.479 OA
ATOM     12  H   UNL     1     -10.860  -0.552 -33.855  1.00  0.00     0.296 HD
ENDBRANCH   1  11
TORSDOF 4
ENDMDL
