MODEL 1
REMARK VINA RESULT:      -4.3      0.000      0.000
REMARK SMILES N[C@H](CS)C(=O)O
REMARK SMILES IDX 2 1 1 2 5 5 6 6 7 7 3 9 4 10
REMARK H PARENT 1 3 1 4 7 8 4 11
ROOT
ATOM      1  C   UNL     1      -1.157  -9.846 -27.572  1.00  0.00     0.171 C 
ENDROOT
BRANCH   1   2
ATOM      2  N   UNL     1      -1.070 -11.214 -28.143  1.00  0.00    -0.318 NA
ATOM      3  H   UNL     1      -1.370 -11.227 -29.116  1.00  0.00     0.119 HD
ATOM      4  H   UNL     1      -1.740 -11.815 -27.654  1.00  0.00     0.119 HD
ENDBRANCH   1   2
BRANCH   1   5
ATOM      5  C   UNL     1      -2.578  -9.300 -27.768  1.00  0.00     0.321 C 
ATOM      6  O   UNL     1      -3.068  -8.969 -28.836  1.00  0.00    -0.251 OA
BRANCH   5   7
ATOM      7  O   UNL     1      -3.242  -9.161 -26.592  1.00  0.00    -0.480 OA
ATOM      8  H   UNL     1      -3.962  -9.812 -26.477  1.00  0.00     0.296 HD
ENDBRANCH   5   7
ENDBRANCH   1   5
BRANCH   1   9
ATOM      9  C   UNL     1      -0.790  -9.805 -26.079  1.00  0.00     0.096 C 
BRANCH   9  10
ATOM     10  S   UNL     1       0.406 -11.110 -25.639  1.00  0.00    -0.177 SA
ATOM     11  H   UNL     1       0.128 -11.107 -24.324  1.00  0.00     0.102 HD
ENDBRANCH   9  10
ENDBRANCH   1   9
TORSDOF 5
ENDMDL
MODEL 2
REMARK VINA RESULT:      -4.2      2.963      3.427
REMARK SMILES N[C@H](CS)C(=O)O
REMARK SMILES IDX 2 1 1 2 5 5 6 6 7 7 3 9 4 10
REMARK H PARENT 1 3 1 4 7 8 4 11
ROOT
ATOM      1  C   UNL     1      -1.145 -10.410 -27.136  1.00  0.00     0.171 C 
ENDROOT
BRANCH   1   2
ATOM      2  N   UNL     1      -0.961 -11.453 -28.177  1.00  0.00    -0.318 NA
ATOM      3  H   UNL     1      -1.450 -11.206 -29.036  1.00  0.00     0.119 HD
ATOM      4  H   UNL     1      -1.412 -12.315 -27.857  1.00  0.00     0.119 HD
ENDBRANCH   1   2
BRANCH   1   5
ATOM      5  C   UNL     1       0.228  -9.943 -26.632  1.00  0.00     0.321 C 
ATOM      6  O   UNL     1       0.764 -10.308 -25.598  1.00  0.00    -0.251 OA
BRANCH   5   7
ATOM      7  O   UNL     1       0.783  -9.010 -27.447  1.00  0.00    -0.480 OA
ATOM      8  H   UNL     1       0.122  -8.463 -27.914  1.00  0.00     0.296 HD
ENDBRANCH   5   7
ENDBRANCH   1   5
BRANCH   1   9
ATOM      9  C   UNL     1      -1.946  -9.200 -27.646  1.00  0.00     0.096 C 
BRANCH   9  10
ATOM     10  S   UNL     1      -3.730  -9.566 -27.752  1.00  0.00    -0.177 SA
ATOM     11  H   UNL     1      -3.582 -10.887 -27.953  1.00  0.00     0.102 HD
ENDBRANCH   9  10
ENDBRANCH   1   9
TORSDOF 5
ENDMDL
MODEL 3
REMARK VINA RESULT:      -3.9      1.528      1.679
REMARK SMILES N[C@H](CS)C(=O)O
REMARK SMILES IDX 2 1 1 2 5 5 6 6 7 7 3 9 4 10
REMARK H PARENT 1 3 1 4 7 8 4 11
ROOT
ATOM      1  C   UNL     1      -1.123  -8.994 -26.935  1.00  0.00     0.171 C 
ENDROOT
BRANCH   1   2
ATOM      2  N   UNL     1       0.235  -8.641 -27.422  1.00  0.00    -0.318 NA
ATOM      3  H   UNL     1       0.864  -9.441 -27.372  1.00  0.00     0.119 HD
ATOM      4  H   UNL     1       0.640  -7.949 -26.785  1.00  0.00     0.119 HD
ENDBRANCH   1   2
BRANCH   1   5
ATOM      5  C   UNL     1      -1.972  -9.498 -28.110  1.00  0.00     0.321 C 
ATOM      6  O   UNL     1      -2.896  -8.891 -28.628  1.00  0.00    -0.251 OA
BRANCH   5   7
ATOM      7  O   UNL     1      -1.623 -10.752 -28.496  1.00  0.00    -0.480 OA
ATOM      8  H   UNL     1      -2.289 -11.179 -29.069  1.00  0.00     0.296 HD
ENDBRANCH   5   7
ENDBRANCH   1   5
BRANCH   1   9
ATOM      9  C   UNL     1      -1.094 -10.058 -25.825  1.00  0.00     0.096 C 
BRANCH   9  10
ATOM     10  S   UNL     1       0.581 -10.737 -25.582  1.00  0.00    -0.177 SA
ATOM     11  H   UNL     1       0.559 -11.535 -26.664  1.00  0.00     0.102 HD
ENDBRANCH   9  10
ENDBRANCH   1   9
TORSDOF 5
ENDMDL
MODEL 4
REMARK VINA RESULT:      -3.9      3.414      3.662
REMARK SMILES N[C@H](CS)C(=O)O
REMARK SMILES IDX 2 1 1 2 5 5 6 6 7 7 3 9 4 10
REMARK H PARENT 1 3 1 4 7 8 4 11
ROOT
ATOM      1  C   UNL     1      -0.285 -10.228 -27.120  1.00  0.00     0.171 C 
ENDROOT
BRANCH   1   2
ATOM      2  N   UNL     1       0.696  -9.143 -27.374  1.00  0.00    -0.318 NA
ATOM      3  H   UNL     1       0.545  -8.355 -26.746  1.00  0.00     0.119 HD
ATOM      4  H   UNL     1       0.529  -8.765 -28.312  1.00  0.00     0.119 HD
ENDBRANCH   1   2
BRANCH   1   5
ATOM      5  C   UNL     1       0.316 -11.241 -26.137  1.00  0.00     0.321 C 
ATOM      6  O   UNL     1       0.461 -12.434 -26.349  1.00  0.00    -0.251 OA
BRANCH   5   7
ATOM      7  O   UNL     1       0.631 -10.674 -24.944  1.00  0.00    -0.480 OA
ATOM      8  H   UNL     1       1.590 -10.530 -24.826  1.00  0.00     0.296 HD
ENDBRANCH   5   7
ENDBRANCH   1   5
BRANCH   1   9
ATOM      9  C   UNL     1      -1.620  -9.700 -26.566  1.00  0.00     0.096 C 
BRANCH   9  10
ATOM     10  S   UNL     1      -2.857  -9.470 -27.887  1.00  0.00    -0.177 SA
ATOM     11  H   UNL     1      -3.769  -8.861 -27.109  1.00  0.00     0.102 HD
ENDBRANCH   9  10
ENDBRANCH   1   9
TORSDOF 5
ENDMDL
MODEL 5
REMARK VINA RESULT:      -3.8      2.985      3.299
REMARK SMILES N[C@H](CS)C(=O)O
REMARK SMILES IDX 2 1 1 2 5 5 6 6 7 7 3 9 4 10
REMARK H PARENT 1 3 1 4 7 8 4 11
ROOT
ATOM      1  C   UNL     1      -2.562 -10.035 -27.981  1.00  0.00     0.171 C 
ENDROOT
BRANCH   1   2
ATOM      2  N   UNL     1      -2.902  -8.725 -28.591  1.00  0.00    -0.318 NA
ATOM      3  H   UNL     1      -2.840  -7.972 -27.907  1.00  0.00     0.119 HD
ATOM      4  H   UNL     1      -3.887  -8.742 -28.873  1.00  0.00     0.119 HD
ENDBRANCH   1   2
BRANCH   1   5
ATOM      5  C   UNL     1      -1.385  -9.857 -27.012  1.00  0.00     0.321 C 
ATOM      6  O   UNL     1      -0.390 -10.563 -26.969  1.00  0.00    -0.251 OA
BRANCH   5   7
ATOM      7  O   UNL     1      -1.588  -8.837 -26.139  1.00  0.00    -0.480 OA
ATOM      8  H   UNL     1      -0.788  -8.600 -25.630  1.00  0.00     0.296 HD
ENDBRANCH   5   7
ENDBRANCH   1   5
BRANCH   1   9
ATOM      9  C   UNL     1      -3.751 -10.667 -27.238  1.00  0.00     0.096 C 
BRANCH   9  10
ATOM     10  S   UNL     1      -5.103  -9.470 -26.983  1.00  0.00    -0.177 SA
ATOM     11  H   UNL     1      -5.699  -9.689 -28.168  1.00  0.00     0.102 HD
ENDBRANCH   9  10
ENDBRANCH   1   9
TORSDOF 5
ENDMDL
MODEL 6
REMARK VINA RESULT:      -3.7     13.363     13.939
REMARK SMILES N[C@H](CS)C(=O)O
REMARK SMILES IDX 2 1 1 2 5 5 6 6 7 7 3 9 4 10
REMARK H PARENT 1 3 1 4 7 8 4 11
ROOT
ATOM      1  C   UNL     1      -9.058   0.392 -32.666  1.00  0.00     0.171 C 
ENDROOT
BRANCH   1   2
ATOM      2  N   UNL     1      -8.316   0.575 -33.939  1.00  0.00    -0.318 NA
ATOM      3  H   UNL     1      -8.250  -0.300 -34.457  1.00  0.00     0.119 HD
ATOM      4  H   UNL     1      -7.346   0.823 -33.719  1.00  0.00     0.119 HD
ENDBRANCH   1   2
BRANCH   1   5
ATOM      5  C   UNL     1     -10.556   0.617 -32.910  1.00  0.00     0.321 C 
ATOM      6  O   UNL     1     -11.390  -0.262 -33.055  1.00  0.00    -0.251 OA
BRANCH   5   7
ATOM      7  O   UNL     1     -10.868   1.935 -33.010  1.00  0.00    -0.480 OA
ATOM      8  H   UNL     1     -10.700   2.434 -32.186  1.00  0.00     0.296 HD
ENDBRANCH   5   7
ENDBRANCH   1   5
BRANCH   1   9
ATOM      9  C   UNL     1      -8.839  -1.000 -32.050  1.00  0.00     0.096 C 
BRANCH   9  10
ATOM     10  S   UNL     1      -7.348  -1.048 -30.999  1.00  0.00    -0.177 SA
ATOM     11  H   UNL     1      -7.453   0.219 -30.563  1.00  0.00     0.102 HD
ENDBRANCH   9  10
ENDBRANCH   1   9
TORSDOF 5
ENDMDL
MODEL 7
REMARK VINA RESULT:      -3.7      3.292      3.623
REMARK SMILES N[C@H](CS)C(=O)O
REMARK SMILES IDX 2 1 1 2 5 5 6 6 7 7 3 9 4 10
REMARK H PARENT 1 3 1 4 7 8 4 11
ROOT
ATOM      1  C   UNL     1       0.426 -11.249 -25.393  1.00  0.00     0.171 C 
ENDROOT
BRANCH   1   2
ATOM      2  N   UNL     1       1.457 -10.566 -24.571  1.00  0.00    -0.318 NA
ATOM      3  H   UNL     1       2.236 -10.250 -25.146  1.00  0.00     0.119 HD
ATOM      4  H   UNL     1       1.866 -11.249 -23.927  1.00  0.00     0.119 HD
ENDBRANCH   1   2
BRANCH   1   5
ATOM      5  C   UNL     1       0.297 -10.537 -26.747  1.00  0.00     0.321 C 
ATOM      6  O   UNL     1       0.608  -9.379 -26.970  1.00  0.00    -0.251 OA
BRANCH   5   7
ATOM      7  O   UNL     1      -0.270 -11.331 -27.692  1.00  0.00    -0.480 OA
ATOM      8  H   UNL     1      -1.224 -11.486 -27.544  1.00  0.00     0.296 HD
ENDBRANCH   5   7
ENDBRANCH   1   5
BRANCH   1   9
ATOM      9  C   UNL     1       0.742 -12.737 -25.620  1.00  0.00     0.096 C 
BRANCH   9  10
ATOM     10  S   UNL     1       0.684 -13.687 -24.064  1.00  0.00    -0.177 SA
ATOM     11  H   UNL     1       0.932 -12.638 -23.260  1.00  0.00     0.102 HD
ENDBRANCH   9  10
ENDBRANCH   1   9
TORSDOF 5
ENDMDL
MODEL 8
REMARK VINA RESULT:      -3.6     13.768     14.111
REMARK SMILES N[C@H](CS)C(=O)O
REMARK SMILES IDX 2 1 1 2 5 5 6 6 7 7 3 9 4 10
REMARK H PARENT 1 3 1 4 7 8 4 11
ROOT
ATOM      1  C   UNL     1      -9.364  -0.383 -33.446  1.00  0.00     0.171 C 
ENDROOT
BRANCH   1   2
ATOM      2  N   UNL     1      -8.862  -1.379 -32.466  1.00  0.00    -0.318 NA
ATOM      3  H   UNL     1      -8.875  -1.004 -31.519  1.00  0.00     0.119 HD
ATOM      4  H   UNL     1      -7.873  -1.560 -32.662  1.00  0.00     0.119 HD
ENDBRANCH   1   2
BRANCH   1   5
ATOM      5  C   UNL     1     -10.733   0.140 -32.987  1.00  0.00     0.321 C 
ATOM      6  O   UNL     1     -11.675  -0.552 -32.639  1.00  0.00    -0.251 OA
BRANCH   5   7
ATOM      7  O   UNL     1     -10.816   1.494 -33.063  1.00  0.00    -0.480 OA
ATOM      8  H   UNL     1      -9.953   1.925 -33.217  1.00  0.00     0.296 HD
ENDBRANCH   5   7
ENDBRANCH   1   5
BRANCH   1   9
ATOM      9  C   UNL     1      -8.397   0.798 -33.636  1.00  0.00     0.096 C 
BRANCH   9  10
ATOM     10  S   UNL     1      -7.101   0.824 -32.353  1.00  0.00    -0.177 SA
ATOM     11  H   UNL     1      -6.069   0.707 -33.206  1.00  0.00     0.102 HD
ENDBRANCH   9  10
ENDBRANCH   1   9
TORSDOF 5
ENDMDL
MODEL 9
REMARK VINA RESULT:      -3.6     13.806     14.391
REMARK SMILES N[C@H](CS)C(=O)O
REMARK SMILES IDX 2 1 1 2 5 5 6 6 7 7 3 9 4 10
REMARK H PARENT 1 3 1 4 7 8 4 11
ROOT
ATOM      1  C   UNL     1     -10.111  -0.121 -33.282  1.00  0.00     0.171 C 
ENDROOT
BRANCH   1   2
ATOM      2  N   UNL     1     -11.457  -0.440 -32.742  1.00  0.00    -0.318 NA
ATOM      3  H   UNL     1     -11.409  -0.688 -31.755  1.00  0.00     0.119 HD
ATOM      4  H   UNL     1     -11.804  -1.284 -33.208  1.00  0.00     0.119 HD
ENDBRANCH   1   2
BRANCH   1   5
ATOM      5  C   UNL     1      -9.840   1.381 -33.124  1.00  0.00     0.321 C 
ATOM      6  O   UNL     1      -8.739   1.893 -33.000  1.00  0.00    -0.251 OA
BRANCH   5   7
ATOM      7  O   UNL     1     -10.986   2.108 -33.077  1.00  0.00    -0.480 OA
ATOM      8  H   UNL     1     -11.790   1.569 -33.214  1.00  0.00     0.296 HD
ENDBRANCH   5   7
ENDBRANCH   1   5
BRANCH   1   9
ATOM      9  C   UNL     1      -8.994  -0.923 -32.594  1.00  0.00     0.096 C 
BRANCH   9  10
ATOM     10  S   UNL     1      -9.610  -1.829 -31.135  1.00  0.00    -0.177 SA
ATOM     11  H   UNL     1      -8.458  -2.475 -30.885  1.00  0.00     0.102 HD
ENDBRANCH   9  10
ENDBRANCH   1   9
TORSDOF 5
ENDMDL
MODEL 10
REMARK VINA RESULT:      -3.6     13.956     14.462
REMARK SMILES N[C@H](CS)C(=O)O
REMARK SMILES IDX 2 1 1 2 5 5 6 6 7 7 3 9 4 10
REMARK H PARENT 1 3 1 4 7 8 4 11
ROOT
ATOM      1  C   UNL     1       7.008  -1.450 -19.189  1.00  0.00     0.171 C 
ENDROOT
BRANCH   1   2
ATOM      2  N   UNL     1       8.463  -1.574 -18.923  1.00  0.00    -0.318 NA
ATOM      3  H   UNL     1       8.638  -2.065 -18.048  1.00  0.00     0.119 HD
ATOM      4  H   UNL     1       8.850  -0.636 -18.778  1.00  0.00     0.119 HD
ENDBRANCH   1   2
BRANCH   1   5
ATOM      5  C   UNL     1       6.482  -2.765 -19.780  1.00  0.00     0.321 C 
ATOM      6  O   UNL     1       6.168  -2.941 -20.946  1.00  0.00    -0.251 OA
BRANCH   5   7
ATOM      7  O   UNL     1       6.342  -3.732 -18.838  1.00  0.00    -0.480 OA
ATOM      8  H   UNL     1       6.122  -4.607 -19.213  1.00  0.00     0.296 HD
ENDBRANCH   5   7
ENDBRANCH   1   5
BRANCH   1   9
ATOM      9  C   UNL     1       6.205  -1.095 -17.925  1.00  0.00     0.096 C 
BRANCH   9  10
ATOM     10  S   UNL     1       7.280  -0.457 -16.597  1.00  0.00    -0.177 SA
ATOM     11  H   UNL     1       6.745  -1.211 -15.621  1.00  0.00     0.102 HD
ENDBRANCH   9  10
ENDBRANCH   1   9
TORSDOF 5
ENDMDL
