MODEL 1
REMARK VINA RESULT:      -6.8      0.000      0.000
REMARK SMILES O=C(O)/C=C\c1ccc(O)cc1
REMARK SMILES IDX 5 1 4 2 6 3 7 4 8 5 9 6 12 7 11 8 10 9 2 11 1 12 3 13
REMARK H PARENT 10 10 3 14
ROOT
ATOM      1  C   UNL     1      -3.490  -8.829 -27.518  1.00  0.00     0.015 C 
ATOM      2  C   UNL     1      -4.773  -9.077 -27.208  1.00  0.00     0.094 C 
ENDROOT
BRANCH   1   3
ATOM      3  C   UNL     1      -2.313  -9.635 -27.185  1.00  0.00    -0.025 A 
ATOM      4  C   UNL     1      -1.418  -9.247 -26.178  1.00  0.00     0.012 A 
ATOM      5  C   UNL     1      -0.300 -10.032 -25.884  1.00  0.00     0.047 A 
ATOM      6  C   UNL     1      -0.073 -11.197 -26.608  1.00  0.00     0.115 A 
ATOM      7  C   UNL     1      -2.058 -10.801 -27.915  1.00  0.00     0.012 A 
ATOM      8  C   UNL     1      -0.940 -11.585 -27.622  1.00  0.00     0.047 A 
BRANCH   6   9
ATOM      9  O   UNL     1       1.003 -11.992 -26.355  1.00  0.00    -0.508 OA
ATOM     10  H   UNL     1       0.757 -12.917 -26.527  1.00  0.00     0.293 HD
ENDBRANCH   6   9
ENDBRANCH   1   3
BRANCH   2  11
ATOM     11  C   UNL     1      -5.355 -10.227 -26.492  1.00  0.00     0.328 C 
ATOM     12  O   UNL     1      -5.216 -11.369 -26.898  1.00  0.00    -0.247 OA
BRANCH  11  13
ATOM     13  O   UNL     1      -5.962  -9.925 -25.333  1.00  0.00    -0.478 OA
ATOM     14  H   UNL     1      -5.809  -9.010 -25.029  1.00  0.00     0.297 HD
ENDBRANCH  11  13
ENDBRANCH   2  11
TORSDOF 4
ENDMDL
MODEL 2
REMARK VINA RESULT:      -5.9      9.199     10.749
REMARK SMILES O=C(O)/C=C\c1ccc(O)cc1
REMARK SMILES IDX 5 1 4 2 6 3 7 4 8 5 9 6 12 7 11 8 10 9 2 11 1 12 3 13
REMARK H PARENT 10 10 3 14
ROOT
ATOM      1  C   UNL     1      -2.430  -0.440 -29.336  1.00  0.00     0.015 C 
ATOM      2  C   UNL     1      -2.700   0.048 -30.558  1.00  0.00     0.094 C 
ENDROOT
BRANCH   1   3
ATOM      3  C   UNL     1      -3.374  -0.718 -28.251  1.00  0.00    -0.025 A 
ATOM      4  C   UNL     1      -3.592   0.200 -27.214  1.00  0.00     0.012 A 
ATOM      5  C   UNL     1      -4.495  -0.093 -26.188  1.00  0.00     0.047 A 
ATOM      6  C   UNL     1      -5.167  -1.310 -26.195  1.00  0.00     0.115 A 
ATOM      7  C   UNL     1      -4.046  -1.945 -28.231  1.00  0.00     0.012 A 
ATOM      8  C   UNL     1      -4.947  -2.238 -27.205  1.00  0.00     0.047 A 
BRANCH   6   9
ATOM      9  O   UNL     1      -6.055  -1.637 -25.216  1.00  0.00    -0.508 OA
ATOM     10  H   UNL     1      -6.938  -1.730 -25.612  1.00  0.00     0.293 HD
ENDBRANCH   6   9
ENDBRANCH   1   3
BRANCH   2  11
ATOM     11  C   UNL     1      -4.001   0.399 -31.157  1.00  0.00     0.328 C 
ATOM     12  O   UNL     1      -4.879  -0.434 -31.314  1.00  0.00    -0.247 OA
BRANCH  11  13
ATOM     13  O   UNL     1      -4.167   1.705 -31.427  1.00  0.00    -0.478 OA
ATOM     14  H   UNL     1      -3.607   2.297 -30.890  1.00  0.00     0.297 HD
ENDBRANCH  11  13
ENDBRANCH   2  11
TORSDOF 4
ENDMDL
MODEL 3
REMARK VINA RESULT:      -5.8     11.913     13.559
REMARK SMILES O=C(O)/C=C\c1ccc(O)cc1
REMARK SMILES IDX 5 1 4 2 6 3 7 4 8 5 9 6 12 7 11 8 10 9 2 11 1 12 3 13
REMARK H PARENT 10 10 3 14
ROOT
ATOM      1  C   UNL     1      -8.125   0.467 -33.582  1.00  0.00     0.015 C 
ATOM      2  C   UNL     1      -9.396   0.523 -34.011  1.00  0.00     0.094 C 
ENDROOT
BRANCH   1   3
ATOM      3  C   UNL     1      -7.631   0.619 -32.211  1.00  0.00    -0.025 A 
ATOM      4  C   UNL     1      -7.450   1.882 -31.631  1.00  0.00     0.012 A 
ATOM      5  C   UNL     1      -6.973   1.998 -30.323  1.00  0.00     0.047 A 
ATOM      6  C   UNL     1      -6.664   0.848 -29.603  1.00  0.00     0.115 A 
ATOM      7  C   UNL     1      -7.298  -0.526 -31.477  1.00  0.00     0.012 A 
ATOM      8  C   UNL     1      -6.820  -0.410 -30.170  1.00  0.00     0.047 A 
BRANCH   6   9
ATOM      9  O   UNL     1      -6.197   0.914 -28.325  1.00  0.00    -0.508 OA
ATOM     10  H   UNL     1      -6.389   1.797 -27.966  1.00  0.00     0.293 HD
ENDBRANCH   6   9
ENDBRANCH   1   3
BRANCH   2  11
ATOM     11  C   UNL     1     -10.636   0.710 -33.235  1.00  0.00     0.328 C 
ATOM     12  O   UNL     1     -11.332  -0.237 -32.904  1.00  0.00    -0.247 OA
BRANCH  11  13
ATOM     13  O   UNL     1     -10.881   1.974 -32.854  1.00  0.00    -0.478 OA
ATOM     14  H   UNL     1     -10.536   2.649 -33.468  1.00  0.00     0.297 HD
ENDBRANCH  11  13
ENDBRANCH   2  11
TORSDOF 4
ENDMDL
MODEL 4
REMARK VINA RESULT:      -5.8     15.392     17.503
REMARK SMILES O=C(O)/C=C\c1ccc(O)cc1
REMARK SMILES IDX 5 1 4 2 6 3 7 4 8 5 9 6 12 7 11 8 10 9 2 11 1 12 3 13
REMARK H PARENT 10 10 3 14
ROOT
ATOM      1  C   UNL     1       7.961   0.893 -16.728  1.00  0.00     0.015 C 
ATOM      2  C   UNL     1       9.092   0.962 -16.006  1.00  0.00     0.094 C 
ENDROOT
BRANCH   1   3
ATOM      3  C   UNL     1       7.428  -0.263 -17.454  1.00  0.00    -0.025 A 
ATOM      4  C   UNL     1       6.532  -1.158 -16.854  1.00  0.00     0.012 A 
ATOM      5  C   UNL     1       6.043  -2.255 -17.568  1.00  0.00     0.047 A 
ATOM      6  C   UNL     1       6.463  -2.461 -18.878  1.00  0.00     0.115 A 
ATOM      7  C   UNL     1       7.853  -0.496 -18.767  1.00  0.00     0.012 A 
ATOM      8  C   UNL     1       7.365  -1.593 -19.480  1.00  0.00     0.047 A 
BRANCH   6   9
ATOM      9  O   UNL     1       6.012  -3.516 -19.611  1.00  0.00    -0.508 OA
ATOM     10  H   UNL     1       5.041  -3.488 -19.636  1.00  0.00     0.293 HD
ENDBRANCH   6   9
ENDBRANCH   1   3
BRANCH   2  11
ATOM     11  C   UNL     1      10.079  -0.093 -15.713  1.00  0.00     0.328 C 
ATOM     12  O   UNL     1       9.740  -1.188 -15.297  1.00  0.00    -0.247 OA
BRANCH  11  13
ATOM     13  O   UNL     1      11.349   0.218 -16.023  1.00  0.00    -0.478 OA
ATOM     14  H   UNL     1      11.575   1.157 -15.885  1.00  0.00     0.297 HD
ENDBRANCH  11  13
ENDBRANCH   2  11
TORSDOF 4
ENDMDL
MODEL 5
REMARK VINA RESULT:      -5.7     12.176     14.184
REMARK SMILES O=C(O)/C=C\c1ccc(O)cc1
REMARK SMILES IDX 5 1 4 2 6 3 7 4 8 5 9 6 12 7 11 8 10 9 2 11 1 12 3 13
REMARK H PARENT 10 10 3 14
ROOT
ATOM      1  C   UNL     1      -6.649   2.228 -30.858  1.00  0.00     0.015 C 
ATOM      2  C   UNL     1      -5.360   1.860 -30.779  1.00  0.00     0.094 C 
ENDROOT
BRANCH   1   3
ATOM      3  C   UNL     1      -7.712   1.611 -31.656  1.00  0.00    -0.025 A 
ATOM      4  C   UNL     1      -7.634   1.537 -33.053  1.00  0.00     0.012 A 
ATOM      5  C   UNL     1      -8.664   0.948 -33.790  1.00  0.00     0.047 A 
ATOM      6  C   UNL     1      -9.779   0.445 -33.126  1.00  0.00     0.115 A 
ATOM      7  C   UNL     1      -8.850   1.116 -31.007  1.00  0.00     0.012 A 
ATOM      8  C   UNL     1      -9.880   0.528 -31.743  1.00  0.00     0.047 A 
BRANCH   6   9
ATOM      9  O   UNL     1     -10.806  -0.138 -33.804  1.00  0.00    -0.508 OA
ATOM     10  H   UNL     1     -10.444  -0.813 -34.403  1.00  0.00     0.293 HD
ENDBRANCH   6   9
ENDBRANCH   1   3
BRANCH   2  11
ATOM     11  C   UNL     1      -4.669   0.731 -31.427  1.00  0.00     0.328 C 
ATOM     12  O   UNL     1      -5.023  -0.423 -31.247  1.00  0.00    -0.247 OA
BRANCH  11  13
ATOM     13  O   UNL     1      -3.695   1.078 -32.284  1.00  0.00    -0.478 OA
ATOM     14  H   UNL     1      -2.842   1.283 -31.856  1.00  0.00     0.297 HD
ENDBRANCH  11  13
ENDBRANCH   2  11
TORSDOF 4
ENDMDL
MODEL 6
REMARK VINA RESULT:      -5.6     21.428     22.589
REMARK SMILES O=C(O)/C=C\c1ccc(O)cc1
REMARK SMILES IDX 5 1 4 2 6 3 7 4 8 5 9 6 12 7 11 8 10 9 2 11 1 12 3 13
REMARK H PARENT 10 10 3 14
ROOT
ATOM      1  C   UNL     1       9.330   7.959 -33.893  1.00  0.00     0.015 C 
ATOM      2  C   UNL     1       9.838   7.138 -32.959  1.00  0.00     0.094 C 
ENDROOT
BRANCH   1   3
ATOM      3  C   UNL     1       7.990   8.550 -33.937  1.00  0.00    -0.025 A 
ATOM      4  C   UNL     1       7.750   9.860 -33.499  1.00  0.00     0.012 A 
ATOM      5  C   UNL     1       6.461  10.397 -33.547  1.00  0.00     0.047 A 
ATOM      6  C   UNL     1       5.412   9.617 -34.021  1.00  0.00     0.115 A 
ATOM      7  C   UNL     1       6.918   7.774 -34.394  1.00  0.00     0.012 A 
ATOM      8  C   UNL     1       5.630   8.311 -34.441  1.00  0.00     0.047 A 
BRANCH   6   9
ATOM      9  O   UNL     1       4.140  10.100 -34.086  1.00  0.00    -0.508 OA
ATOM     10  H   UNL     1       3.771   9.893 -34.961  1.00  0.00     0.293 HD
ENDBRANCH   6   9
ENDBRANCH   1   3
BRANCH   2  11
ATOM     11  C   UNL     1       9.219   6.639 -31.718  1.00  0.00     0.328 C 
ATOM     12  O   UNL     1       8.613   5.580 -31.686  1.00  0.00    -0.247 OA
BRANCH  11  13
ATOM     13  O   UNL     1       9.450   7.388 -30.627  1.00  0.00    -0.478 OA
ATOM     14  H   UNL     1       8.921   7.133 -29.849  1.00  0.00     0.297 HD
ENDBRANCH  11  13
ENDBRANCH   2  11
TORSDOF 4
ENDMDL
MODEL 7
REMARK VINA RESULT:      -5.6     11.810     13.921
REMARK SMILES O=C(O)/C=C\c1ccc(O)cc1
REMARK SMILES IDX 5 1 4 2 6 3 7 4 8 5 9 6 12 7 11 8 10 9 2 11 1 12 3 13
REMARK H PARENT 10 10 3 14
ROOT
ATOM      1  C   UNL     1      -6.348   2.094 -31.377  1.00  0.00     0.015 C 
ATOM      2  C   UNL     1      -5.277   1.416 -30.934  1.00  0.00     0.094 C 
ENDROOT
BRANCH   1   3
ATOM      3  C   UNL     1      -7.577   1.551 -31.962  1.00  0.00    -0.025 A 
ATOM      4  C   UNL     1      -8.766   1.465 -31.225  1.00  0.00     0.012 A 
ATOM      5  C   UNL     1      -9.922   0.938 -31.806  1.00  0.00     0.047 A 
ATOM      6  C   UNL     1      -9.882   0.485 -33.120  1.00  0.00     0.115 A 
ATOM      7  C   UNL     1      -7.551   1.073 -33.278  1.00  0.00     0.012 A 
ATOM      8  C   UNL     1      -8.706   0.546 -33.858  1.00  0.00     0.047 A 
BRANCH   6   9
ATOM      9  O   UNL     1     -10.985  -0.036 -33.727  1.00  0.00    -0.508 OA
ATOM     10  H   UNL     1     -11.657   0.661 -33.807  1.00  0.00     0.293 HD
ENDBRANCH   6   9
ENDBRANCH   1   3
BRANCH   2  11
ATOM     11  C   UNL     1      -5.052  -0.040 -30.875  1.00  0.00     0.328 C 
ATOM     12  O   UNL     1      -5.881  -0.796 -30.394  1.00  0.00    -0.247 OA
BRANCH  11  13
ATOM     13  O   UNL     1      -3.922  -0.463 -31.464  1.00  0.00    -0.478 OA
ATOM     14  H   UNL     1      -3.164  -0.551 -30.855  1.00  0.00     0.297 HD
ENDBRANCH  11  13
ENDBRANCH   2  11
TORSDOF 4
ENDMDL
MODEL 8
REMARK VINA RESULT:      -5.6     15.252     17.107
REMARK SMILES O=C(O)/C=C\c1ccc(O)cc1
REMARK SMILES IDX 5 1 4 2 6 3 7 4 8 5 9 6 12 7 11 8 10 9 2 11 1 12 3 13
REMARK H PARENT 10 10 3 14
ROOT
ATOM      1  C   UNL     1       6.322  -2.053 -16.858  1.00  0.00     0.015 C 
ATOM      2  C   UNL     1       5.966  -2.667 -17.998  1.00  0.00     0.094 C 
ENDROOT
BRANCH   1   3
ATOM      3  C   UNL     1       7.334  -1.009 -16.678  1.00  0.00    -0.025 A 
ATOM      4  C   UNL     1       7.099   0.317 -17.068  1.00  0.00     0.012 A 
ATOM      5  C   UNL     1       8.084   1.292 -16.890  1.00  0.00     0.047 A 
ATOM      6  C   UNL     1       9.308   0.935 -16.335  1.00  0.00     0.115 A 
ATOM      7  C   UNL     1       8.579  -1.353 -16.138  1.00  0.00     0.012 A 
ATOM      8  C   UNL     1       9.563  -0.379 -15.961  1.00  0.00     0.047 A 
BRANCH   6   9
ATOM      9  O   UNL     1      10.296   1.852 -16.142  1.00  0.00    -0.508 OA
ATOM     10  H   UNL     1      11.124   1.384 -15.943  1.00  0.00     0.293 HD
ENDBRANCH   6   9
ENDBRANCH   1   3
BRANCH   2  11
ATOM     11  C   UNL     1       6.453  -2.444 -19.371  1.00  0.00     0.328 C 
ATOM     12  O   UNL     1       6.343  -1.361 -19.921  1.00  0.00    -0.247 OA
BRANCH  11  13
ATOM     13  O   UNL     1       7.096  -3.488 -19.921  1.00  0.00    -0.478 OA
ATOM     14  H   UNL     1       7.282  -4.215 -19.297  1.00  0.00     0.297 HD
ENDBRANCH  11  13
ENDBRANCH   2  11
TORSDOF 4
ENDMDL
MODEL 9
REMARK VINA RESULT:      -5.5     10.964     12.969
REMARK SMILES O=C(O)/C=C\c1ccc(O)cc1
REMARK SMILES IDX 5 1 4 2 6 3 7 4 8 5 9 6 12 7 11 8 10 9 2 11 1 12 3 13
REMARK H PARENT 10 10 3 14
ROOT
ATOM      1  C   UNL     1      -8.112   0.128 -32.365  1.00  0.00     0.015 C 
ATOM      2  C   UNL     1      -8.860   0.784 -33.267  1.00  0.00     0.094 C 
ENDROOT
BRANCH   1   3
ATOM      3  C   UNL     1      -8.573  -0.695 -31.244  1.00  0.00    -0.025 A 
ATOM      4  C   UNL     1      -8.748  -0.157 -29.962  1.00  0.00     0.012 A 
ATOM      5  C   UNL     1      -9.184  -0.966 -28.909  1.00  0.00     0.047 A 
ATOM      6  C   UNL     1      -9.430  -2.315 -29.139  1.00  0.00     0.115 A 
ATOM      7  C   UNL     1      -8.807  -2.059 -31.453  1.00  0.00     0.012 A 
ATOM      8  C   UNL     1      -9.242  -2.867 -30.400  1.00  0.00     0.047 A 
BRANCH   6   9
ATOM      9  O   UNL     1      -9.856  -3.141 -28.143  1.00  0.00    -0.508 OA
ATOM     10  H   UNL     1      -9.829  -2.656 -27.301  1.00  0.00     0.293 HD
ENDBRANCH   6   9
ENDBRANCH   1   3
BRANCH   2  11
ATOM     11  C   UNL     1     -10.326   0.831 -33.408  1.00  0.00     0.328 C 
ATOM     12  O   UNL     1     -10.966  -0.145 -33.763  1.00  0.00    -0.247 OA
BRANCH  11  13
ATOM     13  O   UNL     1     -10.895   1.989 -33.033  1.00  0.00    -0.478 OA
ATOM     14  H   UNL     1     -11.037   2.619 -33.764  1.00  0.00     0.297 HD
ENDBRANCH  11  13
ENDBRANCH   2  11
TORSDOF 4
ENDMDL
MODEL 10
REMARK VINA RESULT:      -5.5     12.535     13.589
REMARK SMILES O=C(O)/C=C\c1ccc(O)cc1
REMARK SMILES IDX 5 1 4 2 6 3 7 4 8 5 9 6 12 7 11 8 10 9 2 11 1 12 3 13
REMARK H PARENT 10 10 3 14
ROOT
ATOM      1  C   UNL     1      -9.447   0.098 -30.701  1.00  0.00     0.015 C 
ATOM      2  C   UNL     1     -10.474   0.113 -31.567  1.00  0.00     0.094 C 
ENDROOT
BRANCH   1   3
ATOM      3  C   UNL     1      -8.085   0.595 -30.913  1.00  0.00    -0.025 A 
ATOM      4  C   UNL     1      -7.768   1.953 -30.770  1.00  0.00     0.012 A 
ATOM      5  C   UNL     1      -6.462   2.401 -30.983  1.00  0.00     0.047 A 
ATOM      6  C   UNL     1      -5.478   1.489 -31.353  1.00  0.00     0.115 A 
ATOM      7  C   UNL     1      -7.086  -0.305 -31.303  1.00  0.00     0.012 A 
ATOM      8  C   UNL     1      -5.781   0.143 -31.517  1.00  0.00     0.047 A 
BRANCH   6   9
ATOM      9  O   UNL     1      -4.192   1.881 -31.570  1.00  0.00    -0.508 OA
ATOM     10  H   UNL     1      -4.192   2.807 -31.867  1.00  0.00     0.293 HD
ENDBRANCH   6   9
ENDBRANCH   1   3
BRANCH   2  11
ATOM     11  C   UNL     1     -10.534   0.659 -32.935  1.00  0.00     0.328 C 
ATOM     12  O   UNL     1     -10.334  -0.044 -33.913  1.00  0.00    -0.247 OA
BRANCH  11  13
ATOM     13  O   UNL     1     -10.908   1.946 -33.016  1.00  0.00    -0.478 OA
ATOM     14  H   UNL     1     -10.234   2.577 -32.700  1.00  0.00     0.297 HD
ENDBRANCH  11  13
ENDBRANCH   2  11
TORSDOF 4
ENDMDL
