MODEL 1
REMARK VINA RESULT:      -6.2      0.000      0.000
REMARK SMILES COc1cc(O)ccc1C=CC(=O)O
REMARK SMILES IDX 10 1 11 2 9 3 3 4 4 5 5 6 8 7 7 8 2 9 1 10 6 11 12 13 13 14
REMARK SMILES IDX 14 15
REMARK H PARENT 6 12 14 16
ROOT
ATOM      1  C   UNL     1      -8.300   0.233 -32.092  1.00  0.00     0.019 C 
ATOM      2  C   UNL     1      -8.815   0.906 -33.131  1.00  0.00     0.094 C 
ENDROOT
BRANCH   1   3
ATOM      3  C   UNL     1      -6.870   0.254 -31.741  1.00  0.00     0.017 A 
ATOM      4  C   UNL     1      -6.258  -0.681 -30.876  1.00  0.00     0.129 A 
ATOM      5  C   UNL     1      -4.889  -0.571 -30.594  1.00  0.00     0.093 A 
ATOM      6  C   UNL     1      -4.150   0.474 -31.147  1.00  0.00     0.119 A 
ATOM      7  C   UNL     1      -6.104   1.304 -32.271  1.00  0.00     0.016 A 
ATOM      8  C   UNL     1      -4.745   1.411 -31.977  1.00  0.00     0.047 A 
BRANCH   4   9
ATOM      9  O   UNL     1      -7.063  -1.671 -30.366  1.00  0.00    -0.496 OA
ATOM     10  C   UNL     1      -6.559  -2.418 -29.265  1.00  0.00     0.278 C 
ENDBRANCH   4   9
BRANCH   6  11
ATOM     11  O   UNL     1      -2.817   0.614 -30.893  1.00  0.00    -0.508 OA
ATOM     12  H   UNL     1      -2.536   1.509 -31.144  1.00  0.00     0.293 HD
ENDBRANCH   6  11
ENDBRANCH   1   3
BRANCH   2  13
ATOM     13  C   UNL     1     -10.264   0.838 -33.394  1.00  0.00     0.328 C 
ATOM     14  O   UNL     1     -10.836  -0.115 -33.894  1.00  0.00    -0.247 OA
BRANCH  13  15
ATOM     15  O   UNL     1     -10.897   1.966 -33.011  1.00  0.00    -0.478 OA
ATOM     16  H   UNL     1     -11.842   1.855 -32.806  1.00  0.00     0.297 HD
ENDBRANCH  13  15
ENDBRANCH   2  13
TORSDOF 5
ENDMDL
MODEL 2
REMARK VINA RESULT:      -6.0      1.275      5.272
REMARK SMILES COc1cc(O)ccc1C=CC(=O)O
REMARK SMILES IDX 10 1 11 2 9 3 3 4 4 5 5 6 8 7 7 8 2 9 1 10 6 11 12 13 13 14
REMARK SMILES IDX 14 15
REMARK H PARENT 6 12 14 16
ROOT
ATOM      1  C   UNL     1      -5.915  -0.258 -31.155  1.00  0.00     0.019 C 
ATOM      2  C   UNL     1      -4.941   0.607 -31.471  1.00  0.00     0.094 C 
ENDROOT
BRANCH   1   3
ATOM      3  C   UNL     1      -7.240  -0.259 -31.799  1.00  0.00     0.017 A 
ATOM      4  C   UNL     1      -8.245  -1.214 -31.529  1.00  0.00     0.129 A 
ATOM      5  C   UNL     1      -9.473  -1.136 -32.202  1.00  0.00     0.093 A 
ATOM      6  C   UNL     1      -9.681  -0.135 -33.149  1.00  0.00     0.119 A 
ATOM      7  C   UNL     1      -7.473   0.729 -32.769  1.00  0.00     0.016 A 
ATOM      8  C   UNL     1      -8.693   0.792 -33.440  1.00  0.00     0.047 A 
BRANCH   4   9
ATOM      9  O   UNL     1      -7.951  -2.174 -30.590  1.00  0.00    -0.496 OA
ATOM     10  C   UNL     1      -8.609  -3.429 -30.713  1.00  0.00     0.278 C 
ENDBRANCH   4   9
BRANCH   6  11
ATOM     11  O   UNL     1     -10.862  -0.031 -33.826  1.00  0.00    -0.508 OA
ATOM     12  H   UNL     1     -10.893   0.825 -34.282  1.00  0.00     0.293 HD
ENDBRANCH   6  11
ENDBRANCH   1   3
BRANCH   2  13
ATOM     13  C   UNL     1      -3.640   0.519 -30.784  1.00  0.00     0.328 C 
ATOM     14  O   UNL     1      -3.451   0.798 -29.614  1.00  0.00    -0.247 OA
BRANCH  13  15
ATOM     15  O   UNL     1      -2.665   0.086 -31.610  1.00  0.00    -0.478 OA
ATOM     16  H   UNL     1      -2.942  -0.053 -32.533  1.00  0.00     0.297 HD
ENDBRANCH  13  15
ENDBRANCH   2  13
TORSDOF 5
ENDMDL
MODEL 3
REMARK VINA RESULT:      -6.0      4.804      6.676
REMARK SMILES COc1cc(O)ccc1C=CC(=O)O
REMARK SMILES IDX 10 1 11 2 9 3 3 4 4 5 5 6 8 7 7 8 2 9 1 10 6 11 12 13 13 14
REMARK SMILES IDX 14 15
REMARK H PARENT 6 12 14 16
ROOT
ATOM      1  C   UNL     1      -4.291   0.045 -26.546  1.00  0.00     0.019 C 
ATOM      2  C   UNL     1      -5.141  -0.758 -25.890  1.00  0.00     0.094 C 
ENDROOT
BRANCH   1   3
ATOM      3  C   UNL     1      -3.938  -0.133 -27.965  1.00  0.00     0.017 A 
ATOM      4  C   UNL     1      -3.926   0.917 -28.911  1.00  0.00     0.129 A 
ATOM      5  C   UNL     1      -3.586   0.645 -30.243  1.00  0.00     0.093 A 
ATOM      6  C   UNL     1      -3.289  -0.661 -30.629  1.00  0.00     0.119 A 
ATOM      7  C   UNL     1      -3.649  -1.440 -28.386  1.00  0.00     0.016 A 
ATOM      8  C   UNL     1      -3.322  -1.703 -29.716  1.00  0.00     0.047 A 
BRANCH   4   9
ATOM      9  O   UNL     1      -4.244   2.171 -28.447  1.00  0.00    -0.496 OA
ATOM     10  C   UNL     1      -3.227   3.165 -28.507  1.00  0.00     0.278 C 
ENDBRANCH   4   9
BRANCH   6  11
ATOM     11  O   UNL     1      -2.956  -0.963 -31.918  1.00  0.00    -0.508 OA
ATOM     12  H   UNL     1      -3.620  -1.568 -32.285  1.00  0.00     0.293 HD
ENDBRANCH   6  11
ENDBRANCH   1   3
BRANCH   2  13
ATOM     13  C   UNL     1      -5.447  -0.489 -24.473  1.00  0.00     0.328 C 
ATOM     14  O   UNL     1      -6.238  -1.126 -23.800  1.00  0.00    -0.247 OA
BRANCH  13  15
ATOM     15  O   UNL     1      -4.740   0.556 -23.997  1.00  0.00    -0.478 OA
ATOM     16  H   UNL     1      -5.205   1.096 -23.334  1.00  0.00     0.297 HD
ENDBRANCH  13  15
ENDBRANCH   2  13
TORSDOF 5
ENDMDL
MODEL 4
REMARK VINA RESULT:      -6.0      1.377      1.730
REMARK SMILES COc1cc(O)ccc1C=CC(=O)O
REMARK SMILES IDX 10 1 11 2 9 3 3 4 4 5 5 6 8 7 7 8 2 9 1 10 6 11 12 13 13 14
REMARK SMILES IDX 14 15
REMARK H PARENT 6 12 14 16
ROOT
ATOM      1  C   UNL     1      -8.623  -0.569 -32.218  1.00  0.00     0.019 C 
ATOM      2  C   UNL     1      -9.304   0.585 -32.172  1.00  0.00     0.094 C 
ENDROOT
BRANCH   1   3
ATOM      3  C   UNL     1      -7.443  -0.847 -31.382  1.00  0.00     0.017 A 
ATOM      4  C   UNL     1      -7.378  -1.895 -30.435  1.00  0.00     0.129 A 
ATOM      5  C   UNL     1      -6.211  -2.073 -29.679  1.00  0.00     0.093 A 
ATOM      6  C   UNL     1      -5.137  -1.201 -29.847  1.00  0.00     0.119 A 
ATOM      7  C   UNL     1      -6.351   0.024 -31.518  1.00  0.00     0.016 A 
ATOM      8  C   UNL     1      -5.199  -0.155 -30.754  1.00  0.00     0.047 A 
BRANCH   4   9
ATOM      9  O   UNL     1      -8.487  -2.699 -30.326  1.00  0.00    -0.496 OA
ATOM     10  C   UNL     1      -8.273  -4.106 -30.319  1.00  0.00     0.278 C 
ENDBRANCH   4   9
BRANCH   6  11
ATOM     11  O   UNL     1      -3.987  -1.342 -29.126  1.00  0.00    -0.508 OA
ATOM     12  H   UNL     1      -4.051  -0.813 -28.315  1.00  0.00     0.293 HD
ENDBRANCH   6  11
ENDBRANCH   1   3
BRANCH   2  13
ATOM     13  C   UNL     1     -10.485   0.765 -33.036  1.00  0.00     0.328 C 
ATOM     14  O   UNL     1     -11.006  -0.116 -33.696  1.00  0.00    -0.247 OA
BRANCH  13  15
ATOM     15  O   UNL     1     -10.934   2.037 -33.013  1.00  0.00    -0.478 OA
ATOM     16  H   UNL     1     -11.178   2.369 -32.131  1.00  0.00     0.297 HD
ENDBRANCH  13  15
ENDBRANCH   2  13
TORSDOF 5
ENDMDL
MODEL 5
REMARK VINA RESULT:      -5.7      3.470      5.993
REMARK SMILES COc1cc(O)ccc1C=CC(=O)O
REMARK SMILES IDX 10 1 11 2 9 3 3 4 4 5 5 6 8 7 7 8 2 9 1 10 6 11 12 13 13 14
REMARK SMILES IDX 14 15
REMARK H PARENT 6 12 14 16
ROOT
ATOM      1  C   UNL     1      -5.215  -0.211 -27.133  1.00  0.00     0.019 C 
ATOM      2  C   UNL     1      -4.747  -0.482 -25.906  1.00  0.00     0.094 C 
ENDROOT
BRANCH   1   3
ATOM      3  C   UNL     1      -4.357  -0.125 -28.327  1.00  0.00     0.017 A 
ATOM      4  C   UNL     1      -4.830  -0.286 -29.649  1.00  0.00     0.129 A 
ATOM      5  C   UNL     1      -3.932  -0.196 -30.721  1.00  0.00     0.093 A 
ATOM      6  C   UNL     1      -2.577   0.023 -30.474  1.00  0.00     0.119 A 
ATOM      7  C   UNL     1      -2.986   0.079 -28.108  1.00  0.00     0.016 A 
ATOM      8  C   UNL     1      -2.098   0.157 -29.180  1.00  0.00     0.047 A 
BRANCH   4   9
ATOM      9  O   UNL     1      -6.177  -0.510 -29.801  1.00  0.00    -0.496 OA
ATOM     10  C   UNL     1      -6.683  -0.567 -31.129  1.00  0.00     0.278 C 
ENDBRANCH   4   9
BRANCH   6  11
ATOM     11  O   UNL     1      -1.674   0.112 -31.492  1.00  0.00    -0.508 OA
ATOM     12  H   UNL     1      -2.099   0.525 -32.261  1.00  0.00     0.293 HD
ENDBRANCH   6  11
ENDBRANCH   1   3
BRANCH   2  13
ATOM     13  C   UNL     1      -5.687  -0.564 -24.773  1.00  0.00     0.328 C 
ATOM     14  O   UNL     1      -6.237  -1.585 -24.399  1.00  0.00    -0.247 OA
BRANCH  13  15
ATOM     15  O   UNL     1      -5.872   0.636 -24.186  1.00  0.00    -0.478 OA
ATOM     16  H   UNL     1      -6.498   0.635 -23.441  1.00  0.00     0.297 HD
ENDBRANCH  13  15
ENDBRANCH   2  13
TORSDOF 5
ENDMDL
MODEL 6
REMARK VINA RESULT:      -5.6      3.397      5.215
REMARK SMILES COc1cc(O)ccc1C=CC(=O)O
REMARK SMILES IDX 10 1 11 2 9 3 3 4 4 5 5 6 8 7 7 8 2 9 1 10 6 11 12 13 13 14
REMARK SMILES IDX 14 15
REMARK H PARENT 6 12 14 16
ROOT
ATOM      1  C   UNL     1      -9.576  -3.606 -29.883  1.00  0.00     0.019 C 
ATOM      2  C   UNL     1      -9.471  -4.942 -29.916  1.00  0.00     0.094 C 
ENDROOT
BRANCH   1   3
ATOM      3  C   UNL     1      -8.467  -2.696 -30.217  1.00  0.00     0.017 A 
ATOM      4  C   UNL     1      -8.560  -1.658 -31.171  1.00  0.00     0.129 A 
ATOM      5  C   UNL     1      -7.443  -0.851 -31.428  1.00  0.00     0.093 A 
ATOM      6  C   UNL     1      -6.244  -1.095 -30.760  1.00  0.00     0.119 A 
ATOM      7  C   UNL     1      -7.242  -2.928 -29.572  1.00  0.00     0.016 A 
ATOM      8  C   UNL     1      -6.134  -2.126 -29.841  1.00  0.00     0.047 A 
BRANCH   4   9
ATOM      9  O   UNL     1      -9.776  -1.495 -31.791  1.00  0.00    -0.496 OA
ATOM     10  C   UNL     1     -10.508  -0.314 -31.489  1.00  0.00     0.278 C 
ENDBRANCH   4   9
BRANCH   6  11
ATOM     11  O   UNL     1      -5.136  -0.331 -30.986  1.00  0.00    -0.508 OA
ATOM     12  H   UNL     1      -4.957   0.212 -30.202  1.00  0.00     0.293 HD
ENDBRANCH   6  11
ENDBRANCH   1   3
BRANCH   2  13
ATOM     13  C   UNL     1     -10.643  -5.771 -29.581  1.00  0.00     0.328 C 
ATOM     14  O   UNL     1     -10.901  -6.194 -28.468  1.00  0.00    -0.247 OA
BRANCH  13  15
ATOM     15  O   UNL     1     -11.411  -6.013 -30.663  1.00  0.00    -0.478 OA
ATOM     16  H   UNL     1     -11.701  -6.938 -30.760  1.00  0.00     0.297 HD
ENDBRANCH  13  15
ENDBRANCH   2  13
TORSDOF 5
ENDMDL
MODEL 7
REMARK VINA RESULT:      -5.5      2.105      5.980
REMARK SMILES COc1cc(O)ccc1C=CC(=O)O
REMARK SMILES IDX 10 1 11 2 9 3 3 4 4 5 5 6 8 7 7 8 2 9 1 10 6 11 12 13 13 14
REMARK SMILES IDX 14 15
REMARK H PARENT 6 12 14 16
ROOT
ATOM      1  C   UNL     1      -5.504  -0.694 -30.519  1.00  0.00     0.019 C 
ATOM      2  C   UNL     1      -4.294  -1.230 -30.308  1.00  0.00     0.094 C 
ENDROOT
BRANCH   1   3
ATOM      3  C   UNL     1      -6.733  -1.495 -30.657  1.00  0.00     0.017 A 
ATOM      4  C   UNL     1      -7.832  -1.118 -31.463  1.00  0.00     0.129 A 
ATOM      5  C   UNL     1      -8.963  -1.944 -31.520  1.00  0.00     0.093 A 
ATOM      6  C   UNL     1      -9.006  -3.114 -30.764  1.00  0.00     0.119 A 
ATOM      7  C   UNL     1      -6.811  -2.670 -29.895  1.00  0.00     0.016 A 
ATOM      8  C   UNL     1      -7.945  -3.480 -29.951  1.00  0.00     0.047 A 
BRANCH   4   9
ATOM      9  O   UNL     1      -7.710   0.056 -32.166  1.00  0.00    -0.496 OA
ATOM     10  C   UNL     1      -8.454   0.174 -33.372  1.00  0.00     0.278 C 
ENDBRANCH   4   9
BRANCH   6  11
ATOM     11  O   UNL     1     -10.092  -3.940 -30.793  1.00  0.00    -0.508 OA
ATOM     12  H   UNL     1     -10.338  -4.112 -31.715  1.00  0.00     0.293 HD
ENDBRANCH   6  11
ENDBRANCH   1   3
BRANCH   2  13
ATOM     13  C   UNL     1      -3.123  -0.345 -30.165  1.00  0.00     0.328 C 
ATOM     14  O   UNL     1      -2.455  -0.234 -29.153  1.00  0.00    -0.247 OA
BRANCH  13  15
ATOM     15  O   UNL     1      -2.870   0.338 -31.300  1.00  0.00    -0.478 OA
ATOM     16  H   UNL     1      -3.333   0.006 -32.090  1.00  0.00     0.297 HD
ENDBRANCH  13  15
ENDBRANCH   2  13
TORSDOF 5
ENDMDL
MODEL 8
REMARK VINA RESULT:      -5.4      3.503      4.339
REMARK SMILES COc1cc(O)ccc1C=CC(=O)O
REMARK SMILES IDX 10 1 11 2 9 3 3 4 4 5 5 6 8 7 7 8 2 9 1 10 6 11 12 13 13 14
REMARK SMILES IDX 14 15
REMARK H PARENT 6 12 14 16
ROOT
ATOM      1  C   UNL     1      -5.961  -1.474 -30.012  1.00  0.00     0.019 C 
ATOM      2  C   UNL     1      -6.664  -2.469 -29.452  1.00  0.00     0.094 C 
ENDROOT
BRANCH   1   3
ATOM      3  C   UNL     1      -4.863  -0.772 -29.327  1.00  0.00     0.017 A 
ATOM      4  C   UNL     1      -5.056   0.269 -28.390  1.00  0.00     0.129 A 
ATOM      5  C   UNL     1      -3.944   0.884 -27.799  1.00  0.00     0.093 A 
ATOM      6  C   UNL     1      -2.658   0.484 -28.159  1.00  0.00     0.119 A 
ATOM      7  C   UNL     1      -3.556  -1.142 -29.682  1.00  0.00     0.016 A 
ATOM      8  C   UNL     1      -2.456  -0.518 -29.095  1.00  0.00     0.047 A 
BRANCH   4   9
ATOM      9  O   UNL     1      -6.357   0.607 -28.103  1.00  0.00    -0.496 OA
ATOM     10  C   UNL     1      -6.793   1.905 -28.490  1.00  0.00     0.278 C 
ENDBRANCH   4   9
BRANCH   6  11
ATOM     11  O   UNL     1      -1.553   1.062 -27.606  1.00  0.00    -0.508 OA
ATOM     12  H   UNL     1      -1.234   0.508 -26.876  1.00  0.00     0.293 HD
ENDBRANCH   6  11
ENDBRANCH   1   3
BRANCH   2  13
ATOM     13  C   UNL     1      -7.736  -3.125 -30.224  1.00  0.00     0.328 C 
ATOM     14  O   UNL     1      -8.205  -4.220 -29.970  1.00  0.00    -0.247 OA
BRANCH  13  15
ATOM     15  O   UNL     1      -8.145  -2.364 -31.259  1.00  0.00    -0.478 OA
ATOM     16  H   UNL     1      -8.524  -1.503 -31.010  1.00  0.00     0.297 HD
ENDBRANCH  13  15
ENDBRANCH   2  13
TORSDOF 5
ENDMDL
MODEL 9
REMARK VINA RESULT:      -5.4     14.744     16.230
REMARK SMILES COc1cc(O)ccc1C=CC(=O)O
REMARK SMILES IDX 10 1 11 2 9 3 3 4 4 5 5 6 8 7 7 8 2 9 1 10 6 11 12 13 13 14
REMARK SMILES IDX 14 15
REMARK H PARENT 6 12 14 16
ROOT
ATOM      1  C   UNL     1       5.654   8.884 -33.686  1.00  0.00     0.019 C 
ATOM      2  C   UNL     1       5.486  10.209 -33.570  1.00  0.00     0.094 C 
ENDROOT
BRANCH   1   3
ATOM      3  C   UNL     1       6.960   8.217 -33.547  1.00  0.00     0.017 A 
ATOM      4  C   UNL     1       7.182   7.081 -32.735  1.00  0.00     0.129 A 
ATOM      5  C   UNL     1       8.466   6.524 -32.661  1.00  0.00     0.093 A 
ATOM      6  C   UNL     1       9.517   7.108 -33.365  1.00  0.00     0.119 A 
ATOM      7  C   UNL     1       8.041   8.793 -34.233  1.00  0.00     0.016 A 
ATOM      8  C   UNL     1       9.317   8.237 -34.144  1.00  0.00     0.047 A 
BRANCH   4   9
ATOM      9  O   UNL     1       6.093   6.577 -32.066  1.00  0.00    -0.496 OA
ATOM     10  C   UNL     1       6.122   6.624 -30.645  1.00  0.00     0.278 C 
ENDBRANCH   4   9
BRANCH   6  11
ATOM     11  O   UNL     1      10.780   6.595 -33.314  1.00  0.00    -0.508 OA
ATOM     12  H   UNL     1      11.328   7.151 -32.737  1.00  0.00     0.293 HD
ENDBRANCH   6  11
ENDBRANCH   1   3
BRANCH   2  13
ATOM     13  C   UNL     1       4.136  10.784 -33.708  1.00  0.00     0.328 C 
ATOM     14  O   UNL     1       3.898  11.919 -34.081  1.00  0.00    -0.247 OA
BRANCH  13  15
ATOM     15  O   UNL     1       3.176   9.899 -33.369  1.00  0.00    -0.478 OA
ATOM     16  H   UNL     1       2.264  10.223 -33.473  1.00  0.00     0.297 HD
ENDBRANCH  13  15
ENDBRANCH   2  13
TORSDOF 5
ENDMDL
MODEL 10
REMARK VINA RESULT:      -5.4      1.641      2.827
REMARK SMILES COc1cc(O)ccc1C=CC(=O)O
REMARK SMILES IDX 10 1 11 2 9 3 3 4 4 5 5 6 8 7 7 8 2 9 1 10 6 11 12 13 13 14
REMARK SMILES IDX 14 15
REMARK H PARENT 6 12 14 16
ROOT
ATOM      1  C   UNL     1      -7.936  -0.082 -32.138  1.00  0.00     0.019 C 
ATOM      2  C   UNL     1      -9.183  -0.574 -32.168  1.00  0.00     0.094 C 
ENDROOT
BRANCH   1   3
ATOM      3  C   UNL     1      -6.891  -0.575 -31.225  1.00  0.00     0.017 A 
ATOM      4  C   UNL     1      -5.605   0.001 -31.115  1.00  0.00     0.129 A 
ATOM      5  C   UNL     1      -4.674  -0.548 -30.223  1.00  0.00     0.093 A 
ATOM      6  C   UNL     1      -5.014  -1.673 -29.473  1.00  0.00     0.119 A 
ATOM      7  C   UNL     1      -7.199  -1.717 -30.469  1.00  0.00     0.016 A 
ATOM      8  C   UNL     1      -6.263  -2.262 -29.591  1.00  0.00     0.047 A 
BRANCH   4   9
ATOM      9  O   UNL     1      -5.351   1.101 -31.900  1.00  0.00    -0.496 OA
ATOM     10  C   UNL     1      -4.964   2.298 -31.238  1.00  0.00     0.278 C 
ENDBRANCH   4   9
BRANCH   6  11
ATOM     11  O   UNL     1      -4.132  -2.236 -28.597  1.00  0.00    -0.508 OA
ATOM     12  H   UNL     1      -3.765  -1.545 -28.024  1.00  0.00     0.293 HD
ENDBRANCH   6  11
ENDBRANCH   1   3
BRANCH   2  13
ATOM     13  C   UNL     1     -10.157  -0.026 -33.130  1.00  0.00     0.328 C 
ATOM     14  O   UNL     1     -11.361  -0.201 -33.076  1.00  0.00    -0.247 OA
BRANCH  13  15
ATOM     15  O   UNL     1      -9.555   0.702 -34.093  1.00  0.00    -0.478 OA
ATOM     16  H   UNL     1      -9.315   1.608 -33.830  1.00  0.00     0.297 HD
ENDBRANCH  13  15
ENDBRANCH   2  13
TORSDOF 5
ENDMDL
