MODEL 1
REMARK VINA RESULT:      -6.9      0.000      0.000
REMARK SMILES O=C(O)/C=C/c1ccc(O)cc1
REMARK SMILES IDX 5 1 4 2 6 3 7 4 8 5 9 6 12 7 11 8 10 9 2 11 1 12 3 13
REMARK H PARENT 10 10 3 14
ROOT
ATOM      1  C   UNL     1       6.038  -2.347 -20.245  1.00  0.00     0.015 C 
ATOM      2  C   UNL     1       5.654  -1.632 -21.314  1.00  0.00     0.094 C 
ENDROOT
BRANCH   1   3
ATOM      3  C   UNL     1       6.601  -1.750 -19.028  1.00  0.00    -0.025 A 
ATOM      4  C   UNL     1       6.088  -2.030 -17.753  1.00  0.00     0.012 A 
ATOM      5  C   UNL     1       6.632  -1.422 -16.617  1.00  0.00     0.047 A 
ATOM      6  C   UNL     1       7.686  -0.525 -16.760  1.00  0.00     0.115 A 
ATOM      7  C   UNL     1       7.650  -0.831 -19.150  1.00  0.00     0.012 A 
ATOM      8  C   UNL     1       8.196  -0.224 -18.017  1.00  0.00     0.047 A 
BRANCH   6   9
ATOM      9  O   UNL     1       8.247   0.091 -15.683  1.00  0.00    -0.508 OA
ATOM     10  H   UNL     1       8.411   1.023 -15.906  1.00  0.00     0.293 HD
ENDBRANCH   6   9
ENDBRANCH   1   3
BRANCH   2  11
ATOM     11  C   UNL     1       5.084  -2.332 -22.483  1.00  0.00     0.328 C 
ATOM     12  O   UNL     1       4.417  -3.350 -22.425  1.00  0.00    -0.247 OA
BRANCH  11  13
ATOM     13  O   UNL     1       5.387  -1.712 -23.640  1.00  0.00    -0.478 OA
ATOM     14  H   UNL     1       4.840  -0.936 -23.858  1.00  0.00     0.297 HD
ENDBRANCH  11  13
ENDBRANCH   2  11
TORSDOF 4
ENDMDL
MODEL 2
REMARK VINA RESULT:      -6.3      1.180      1.741
REMARK SMILES O=C(O)/C=C/c1ccc(O)cc1
REMARK SMILES IDX 5 1 4 2 6 3 7 4 8 5 9 6 12 7 11 8 10 9 2 11 1 12 3 13
REMARK H PARENT 10 10 3 14
ROOT
ATOM      1  C   UNL     1       5.899  -2.548 -21.509  1.00  0.00     0.015 C 
ATOM      2  C   UNL     1       5.160  -1.682 -22.220  1.00  0.00     0.094 C 
ENDROOT
BRANCH   1   3
ATOM      3  C   UNL     1       6.239  -2.355 -20.095  1.00  0.00    -0.025 A 
ATOM      4  C   UNL     1       5.900  -3.295 -19.109  1.00  0.00     0.012 A 
ATOM      5  C   UNL     1       6.216  -3.064 -17.767  1.00  0.00     0.047 A 
ATOM      6  C   UNL     1       6.866  -1.887 -17.409  1.00  0.00     0.115 A 
ATOM      7  C   UNL     1       6.878  -1.169 -19.709  1.00  0.00     0.012 A 
ATOM      8  C   UNL     1       7.196  -0.939 -18.369  1.00  0.00     0.047 A 
BRANCH   6   9
ATOM      9  O   UNL     1       7.193  -1.621 -16.114  1.00  0.00    -0.508 OA
ATOM     10  H   UNL     1       6.585  -0.945 -15.770  1.00  0.00     0.293 HD
ENDBRANCH   6   9
ENDBRANCH   1   3
BRANCH   2  11
ATOM     11  C   UNL     1       4.862  -1.982 -23.635  1.00  0.00     0.328 C 
ATOM     12  O   UNL     1       5.294  -1.351 -24.584  1.00  0.00    -0.247 OA
BRANCH  11  13
ATOM     13  O   UNL     1       4.046  -3.046 -23.766  1.00  0.00    -0.478 OA
ATOM     14  H   UNL     1       3.094  -2.859 -23.682  1.00  0.00     0.297 HD
ENDBRANCH  11  13
ENDBRANCH   2  11
TORSDOF 4
ENDMDL
MODEL 3
REMARK VINA RESULT:      -6.0     13.007     13.953
REMARK SMILES O=C(O)/C=C/c1ccc(O)cc1
REMARK SMILES IDX 5 1 4 2 6 3 7 4 8 5 9 6 12 7 11 8 10 9 2 11 1 12 3 13
REMARK H PARENT 10 10 3 14
ROOT
ATOM      1  C   UNL     1      -5.311  -1.115 -26.030  1.00  0.00     0.015 C 
ATOM      2  C   UNL     1      -5.564  -0.428 -24.905  1.00  0.00     0.094 C 
ENDROOT
BRANCH   1   3
ATOM      3  C   UNL     1      -4.284  -0.729 -27.004  1.00  0.00    -0.025 A 
ATOM      4  C   UNL     1      -3.559   0.467 -26.891  1.00  0.00     0.012 A 
ATOM      5  C   UNL     1      -2.606   0.816 -27.853  1.00  0.00     0.047 A 
ATOM      6  C   UNL     1      -2.385  -0.031 -28.934  1.00  0.00     0.115 A 
ATOM      7  C   UNL     1      -4.056  -1.557 -28.110  1.00  0.00     0.012 A 
ATOM      8  C   UNL     1      -3.103  -1.211 -29.071  1.00  0.00     0.047 A 
BRANCH   6   9
ATOM      9  O   UNL     1      -1.467   0.269 -29.896  1.00  0.00    -0.508 OA
ATOM     10  H   UNL     1      -0.743   0.774 -29.491  1.00  0.00     0.293 HD
ENDBRANCH   6   9
ENDBRANCH   1   3
BRANCH   2  11
ATOM     11  C   UNL     1      -6.610  -0.913 -23.983  1.00  0.00     0.328 C 
ATOM     12  O   UNL     1      -7.508  -0.226 -23.527  1.00  0.00    -0.247 OA
BRANCH  11  13
ATOM     13  O   UNL     1      -6.463  -2.221 -23.695  1.00  0.00    -0.478 OA
ATOM     14  H   UNL     1      -5.545  -2.528 -23.592  1.00  0.00     0.297 HD
ENDBRANCH  11  13
ENDBRANCH   2  11
TORSDOF 4
ENDMDL
MODEL 4
REMARK VINA RESULT:      -6.0      2.468      6.516
REMARK SMILES O=C(O)/C=C/c1ccc(O)cc1
REMARK SMILES IDX 5 1 4 2 6 3 7 4 8 5 9 6 12 7 11 8 10 9 2 11 1 12 3 13
REMARK H PARENT 10 10 3 14
ROOT
ATOM      1  C   UNL     1       5.576  -2.520 -21.465  1.00  0.00     0.015 C 
ATOM      2  C   UNL     1       6.076  -1.701 -20.526  1.00  0.00     0.094 C 
ENDROOT
BRANCH   1   3
ATOM      3  C   UNL     1       4.995  -2.049 -22.727  1.00  0.00    -0.025 A 
ATOM      4  C   UNL     1       5.763  -1.407 -23.710  1.00  0.00     0.012 A 
ATOM      5  C   UNL     1       5.170  -0.947 -24.890  1.00  0.00     0.047 A 
ATOM      6  C   UNL     1       3.804  -1.123 -25.083  1.00  0.00     0.115 A 
ATOM      7  C   UNL     1       3.618  -2.199 -22.935  1.00  0.00     0.012 A 
ATOM      8  C   UNL     1       3.025  -1.743 -24.114  1.00  0.00     0.047 A 
BRANCH   6   9
ATOM      9  O   UNL     1       3.184  -0.690 -26.216  1.00  0.00    -0.508 OA
ATOM     10  H   UNL     1       3.624  -1.089 -26.985  1.00  0.00     0.293 HD
ENDBRANCH   6   9
ENDBRANCH   1   3
BRANCH   2  11
ATOM     11  C   UNL     1       6.653  -2.280 -19.297  1.00  0.00     0.328 C 
ATOM     12  O   UNL     1       7.115  -1.633 -18.374  1.00  0.00    -0.247 OA
BRANCH  11  13
ATOM     13  O   UNL     1       6.613  -3.627 -19.306  1.00  0.00    -0.478 OA
ATOM     14  H   UNL     1       6.364  -4.047 -18.463  1.00  0.00     0.297 HD
ENDBRANCH  11  13
ENDBRANCH   2  11
TORSDOF 4
ENDMDL
MODEL 5
REMARK VINA RESULT:      -6.0     15.955     18.824
REMARK SMILES O=C(O)/C=C/c1ccc(O)cc1
REMARK SMILES IDX 5 1 4 2 6 3 7 4 8 5 9 6 12 7 11 8 10 9 2 11 1 12 3 13
REMARK H PARENT 10 10 3 14
ROOT
ATOM      1  C   UNL     1      -8.312   0.290 -32.070  1.00  0.00     0.015 C 
ATOM      2  C   UNL     1      -8.839   0.890 -33.149  1.00  0.00     0.094 C 
ENDROOT
BRANCH   1   3
ATOM      3  C   UNL     1      -6.880   0.308 -31.750  1.00  0.00    -0.025 A 
ATOM      4  C   UNL     1      -6.296  -0.632 -30.888  1.00  0.00     0.012 A 
ATOM      5  C   UNL     1      -4.932  -0.568 -30.584  1.00  0.00     0.047 A 
ATOM      6  C   UNL     1      -4.154   0.443 -31.137  1.00  0.00     0.115 A 
ATOM      7  C   UNL     1      -6.081   1.328 -32.282  1.00  0.00     0.012 A 
ATOM      8  C   UNL     1      -4.719   1.391 -31.981  1.00  0.00     0.047 A 
BRANCH   6   9
ATOM      9  O   UNL     1      -2.823   0.545 -30.869  1.00  0.00    -0.508 OA
ATOM     10  H   UNL     1      -2.649   0.156 -29.995  1.00  0.00     0.293 HD
ENDBRANCH   6   9
ENDBRANCH   1   3
BRANCH   2  11
ATOM     11  C   UNL     1     -10.298   0.824 -33.370  1.00  0.00     0.328 C 
ATOM     12  O   UNL     1     -10.891  -0.145 -33.810  1.00  0.00    -0.247 OA
BRANCH  11  13
ATOM     13  O   UNL     1     -10.913   1.973 -33.025  1.00  0.00    -0.478 OA
ATOM     14  H   UNL     1     -10.667   2.756 -33.549  1.00  0.00     0.297 HD
ENDBRANCH  11  13
ENDBRANCH   2  11
TORSDOF 4
ENDMDL
MODEL 6
REMARK VINA RESULT:      -5.9      1.677      2.537
REMARK SMILES O=C(O)/C=C/c1ccc(O)cc1
REMARK SMILES IDX 5 1 4 2 6 3 7 4 8 5 9 6 12 7 11 8 10 9 2 11 1 12 3 13
REMARK H PARENT 10 10 3 14
ROOT
ATOM      1  C   UNL     1       7.732  -1.404 -19.191  1.00  0.00     0.015 C 
ATOM      2  C   UNL     1       6.468  -1.521 -19.630  1.00  0.00     0.094 C 
ENDROOT
BRANCH   1   3
ATOM      3  C   UNL     1       8.125  -0.544 -18.069  1.00  0.00    -0.025 A 
ATOM      4  C   UNL     1       9.320  -0.741 -17.360  1.00  0.00     0.012 A 
ATOM      5  C   UNL     1       9.650   0.082 -16.279  1.00  0.00     0.047 A 
ATOM      6  C   UNL     1       8.779   1.099 -15.902  1.00  0.00     0.115 A 
ATOM      7  C   UNL     1       7.255   0.475 -17.661  1.00  0.00     0.012 A 
ATOM      8  C   UNL     1       7.585   1.299 -16.582  1.00  0.00     0.047 A 
BRANCH   6   9
ATOM      9  O   UNL     1       9.059   1.924 -14.854  1.00  0.00    -0.508 OA
ATOM     10  H   UNL     1       9.460   1.399 -14.141  1.00  0.00     0.293 HD
ENDBRANCH   6   9
ENDBRANCH   1   3
BRANCH   2  11
ATOM     11  C   UNL     1       6.178  -2.428 -20.758  1.00  0.00     0.328 C 
ATOM     12  O   UNL     1       5.527  -2.126 -21.742  1.00  0.00    -0.247 OA
BRANCH  11  13
ATOM     13  O   UNL     1       6.720  -3.649 -20.577  1.00  0.00    -0.478 OA
ATOM     14  H   UNL     1       6.100  -4.349 -20.308  1.00  0.00     0.297 HD
ENDBRANCH  11  13
ENDBRANCH   2  11
TORSDOF 4
ENDMDL
MODEL 7
REMARK VINA RESULT:      -5.9     15.676     19.072
REMARK SMILES O=C(O)/C=C/c1ccc(O)cc1
REMARK SMILES IDX 5 1 4 2 6 3 7 4 8 5 9 6 12 7 11 8 10 9 2 11 1 12 3 13
REMARK H PARENT 10 10 3 14
ROOT
ATOM      1  C   UNL     1      -5.569   1.100 -31.851  1.00  0.00     0.015 C 
ATOM      2  C   UNL     1      -5.058   0.033 -31.218  1.00  0.00     0.094 C 
ENDROOT
BRANCH   1   3
ATOM      3  C   UNL     1      -7.001   1.272 -32.125  1.00  0.00    -0.025 A 
ATOM      4  C   UNL     1      -7.895   1.748 -31.155  1.00  0.00     0.012 A 
ATOM      5  C   UNL     1      -9.258   1.874 -31.443  1.00  0.00     0.047 A 
ATOM      6  C   UNL     1      -9.727   1.515 -32.702  1.00  0.00     0.115 A 
ATOM      7  C   UNL     1      -7.498   0.901 -33.381  1.00  0.00     0.012 A 
ATOM      8  C   UNL     1      -8.858   1.028 -33.671  1.00  0.00     0.047 A 
BRANCH   6   9
ATOM      9  O   UNL     1     -11.046   1.620 -33.027  1.00  0.00    -0.508 OA
ATOM     10  H   UNL     1     -11.156   1.394 -33.966  1.00  0.00     0.293 HD
ENDBRANCH   6   9
ENDBRANCH   1   3
BRANCH   2  11
ATOM     11  C   UNL     1      -3.602  -0.034 -30.979  1.00  0.00     0.328 C 
ATOM     12  O   UNL     1      -3.023   0.526 -30.064  1.00  0.00    -0.247 OA
BRANCH  11  13
ATOM     13  O   UNL     1      -2.973  -0.793 -31.897  1.00  0.00    -0.478 OA
ATOM     14  H   UNL     1      -2.573  -0.308 -32.641  1.00  0.00     0.297 HD
ENDBRANCH  11  13
ENDBRANCH   2  11
TORSDOF 4
ENDMDL
MODEL 8
REMARK VINA RESULT:      -5.9     15.964     18.773
REMARK SMILES O=C(O)/C=C/c1ccc(O)cc1
REMARK SMILES IDX 5 1 4 2 6 3 7 4 8 5 9 6 12 7 11 8 10 9 2 11 1 12 3 13
REMARK H PARENT 10 10 3 14
ROOT
ATOM      1  C   UNL     1      -8.578   1.414 -31.672  1.00  0.00     0.015 C 
ATOM      2  C   UNL     1      -9.103   0.683 -32.668  1.00  0.00     0.094 C 
ENDROOT
BRANCH   1   3
ATOM      3  C   UNL     1      -7.161   1.374 -31.296  1.00  0.00    -0.025 A 
ATOM      4  C   UNL     1      -6.344   0.268 -31.575  1.00  0.00     0.012 A 
ATOM      5  C   UNL     1      -5.004   0.253 -31.177  1.00  0.00     0.047 A 
ATOM      6  C   UNL     1      -4.482   1.345 -30.492  1.00  0.00     0.115 A 
ATOM      7  C   UNL     1      -6.618   2.455 -30.589  1.00  0.00     0.012 A 
ATOM      8  C   UNL     1      -5.279   2.443 -30.193  1.00  0.00     0.047 A 
BRANCH   6   9
ATOM      9  O   UNL     1      -3.182   1.374 -30.084  1.00  0.00    -0.508 OA
ATOM     10  H   UNL     1      -3.155   1.281 -29.117  1.00  0.00     0.293 HD
ENDBRANCH   6   9
ENDBRANCH   1   3
BRANCH   2  11
ATOM     11  C   UNL     1     -10.542   0.811 -32.975  1.00  0.00     0.328 C 
ATOM     12  O   UNL     1     -11.308  -0.126 -33.119  1.00  0.00    -0.247 OA
BRANCH  11  13
ATOM     13  O   UNL     1     -10.923   2.099 -33.082  1.00  0.00    -0.478 OA
ATOM     14  H   UNL     1     -11.777   2.249 -33.526  1.00  0.00     0.297 HD
ENDBRANCH  11  13
ENDBRANCH   2  11
TORSDOF 4
ENDMDL
MODEL 9
REMARK VINA RESULT:      -5.8     11.678     14.005
REMARK SMILES O=C(O)/C=C/c1ccc(O)cc1
REMARK SMILES IDX 5 1 4 2 6 3 7 4 8 5 9 6 12 7 11 8 10 9 2 11 1 12 3 13
REMARK H PARENT 10 10 3 14
ROOT
ATOM      1  C   UNL     1       0.691 -10.180 -25.361  1.00  0.00     0.015 C 
ATOM      2  C   UNL     1       0.895 -11.268 -24.601  1.00  0.00     0.094 C 
ENDROOT
BRANCH   1   3
ATOM      3  C   UNL     1      -0.448 -10.030 -26.275  1.00  0.00    -0.025 A 
ATOM      4  C   UNL     1      -0.792 -11.021 -27.208  1.00  0.00     0.012 A 
ATOM      5  C   UNL     1      -1.866 -10.833 -28.083  1.00  0.00     0.047 A 
ATOM      6  C   UNL     1      -2.593  -9.648 -28.029  1.00  0.00     0.115 A 
ATOM      7  C   UNL     1      -1.182  -8.838 -26.251  1.00  0.00     0.012 A 
ATOM      8  C   UNL     1      -2.257  -8.650 -27.122  1.00  0.00     0.047 A 
BRANCH   6   9
ATOM      9  O   UNL     1      -3.647  -9.421 -28.862  1.00  0.00    -0.508 OA
ATOM     10  H   UNL     1      -3.318  -9.002 -29.675  1.00  0.00     0.293 HD
ENDBRANCH   6   9
ENDBRANCH   1   3
BRANCH   2  11
ATOM     11  C   UNL     1       2.065 -11.309 -23.702  1.00  0.00     0.328 C 
ATOM     12  O   UNL     1       2.260 -12.163 -22.855  1.00  0.00    -0.247 OA
BRANCH  11  13
ATOM     13  O   UNL     1       2.908 -10.281 -23.922  1.00  0.00    -0.478 OA
ATOM     14  H   UNL     1       2.487  -9.416 -24.074  1.00  0.00     0.297 HD
ENDBRANCH  11  13
ENDBRANCH   2  11
TORSDOF 4
ENDMDL
MODEL 10
REMARK VINA RESULT:      -5.7     12.701     14.910
REMARK SMILES O=C(O)/C=C/c1ccc(O)cc1
REMARK SMILES IDX 5 1 4 2 6 3 7 4 8 5 9 6 12 7 11 8 10 9 2 11 1 12 3 13
REMARK H PARENT 10 10 3 14
ROOT
ATOM      1  C   UNL     1      -5.989  -2.236 -28.345  1.00  0.00     0.015 C 
ATOM      2  C   UNL     1      -6.540  -2.570 -29.522  1.00  0.00     0.094 C 
ENDROOT
BRANCH   1   3
ATOM      3  C   UNL     1      -4.819  -1.359 -28.217  1.00  0.00    -0.025 A 
ATOM      4  C   UNL     1      -3.737  -1.422 -29.108  1.00  0.00     0.012 A 
ATOM      5  C   UNL     1      -2.626  -0.590 -28.939  1.00  0.00     0.047 A 
ATOM      6  C   UNL     1      -2.595   0.302 -27.871  1.00  0.00     0.115 A 
ATOM      7  C   UNL     1      -4.758  -0.466 -27.139  1.00  0.00     0.012 A 
ATOM      8  C   UNL     1      -3.650   0.367 -26.971  1.00  0.00     0.047 A 
BRANCH   6   9
ATOM      9  O   UNL     1      -1.533   1.131 -27.667  1.00  0.00    -0.508 OA
ATOM     10  H   UNL     1      -1.814   2.046 -27.835  1.00  0.00     0.293 HD
ENDBRANCH   6   9
ENDBRANCH   1   3
BRANCH   2  11
ATOM     11  C   UNL     1      -7.728  -3.448 -29.538  1.00  0.00     0.328 C 
ATOM     12  O   UNL     1      -8.224  -3.963 -28.552  1.00  0.00    -0.247 OA
BRANCH  11  13
ATOM     13  O   UNL     1      -8.211  -3.621 -30.784  1.00  0.00    -0.478 OA
ATOM     14  H   UNL     1      -7.626  -3.333 -31.507  1.00  0.00     0.297 HD
ENDBRANCH  11  13
ENDBRANCH   2  11
TORSDOF 4
ENDMDL
