MODEL 1
REMARK VINA RESULT:      -5.9      0.000      0.000
REMARK SMILES C/C=C/[S@@](=O)C[C@H](N)C(=O)O
REMARK SMILES IDX 6 1 4 2 5 3 3 4 2 5 1 6 7 7 9 8 10 9 11 10 8 12
REMARK H PARENT 11 11 8 13 8 14
ROOT
ATOM      1  C   UNL     1      -3.760 -10.539 -27.006  1.00  0.00     0.140 C 
ENDROOT
BRANCH   1   2
ATOM      2  S   UNL     1      -2.859  -8.972 -27.302  1.00  0.00     0.047 S 
ATOM      3  O   UNL     1      -3.000  -8.680 -28.768  1.00  0.00    -0.255 OA
BRANCH   2   4
ATOM      4  C   UNL     1      -1.199  -9.617 -27.144  1.00  0.00     0.070 C 
ATOM      5  C   UNL     1      -0.781 -10.016 -25.934  1.00  0.00    -0.021 C 
ATOM      6  C   UNL     1       0.593 -10.541 -25.668  1.00  0.00     0.036 C 
ENDBRANCH   2   4
ENDBRANCH   1   2
BRANCH   1   7
ATOM      7  C   UNL     1      -5.277 -10.390 -27.136  1.00  0.00     0.175 C 
BRANCH   7   8
ATOM      8  C   UNL     1      -6.029 -11.381 -26.236  1.00  0.00     0.321 C 
ATOM      9  O   UNL     1      -6.050 -11.356 -25.017  1.00  0.00    -0.251 OA
BRANCH   8  10
ATOM     10  O   UNL     1      -6.744 -12.283 -26.956  1.00  0.00    -0.480 OA
ATOM     11  H   UNL     1      -6.657 -12.169 -27.922  1.00  0.00     0.296 HD
ENDBRANCH   8  10
ENDBRANCH   7   8
BRANCH   7  12
ATOM     12  N   UNL     1      -5.702  -9.009 -26.792  1.00  0.00    -0.318 NA
ATOM     13  H   UNL     1      -6.556  -8.785 -27.313  1.00  0.00     0.119 HD
ATOM     14  H   UNL     1      -5.018  -8.323 -27.113  1.00  0.00     0.119 HD
ENDBRANCH   7  12
ENDBRANCH   1   7
TORSDOF 6
ENDMDL
MODEL 2
REMARK VINA RESULT:      -5.8      3.176      5.199
REMARK SMILES C/C=C/[S@@](=O)C[C@H](N)C(=O)O
REMARK SMILES IDX 6 1 4 2 5 3 3 4 2 5 1 6 7 7 9 8 10 9 11 10 8 12
REMARK H PARENT 11 11 8 13 8 14
ROOT
ATOM      1  C   UNL     1      -1.446  -9.278 -26.332  1.00  0.00     0.140 C 
ENDROOT
BRANCH   1   2
ATOM      2  S   UNL     1      -2.157  -9.693 -27.968  1.00  0.00     0.047 S 
ATOM      3  O   UNL     1      -2.795  -8.434 -28.478  1.00  0.00    -0.255 OA
BRANCH   2   4
ATOM      4  C   UNL     1      -3.533 -10.677 -27.388  1.00  0.00     0.070 C 
ATOM      5  C   UNL     1      -4.632 -10.043 -26.953  1.00  0.00    -0.021 C 
ATOM      6  C   UNL     1      -5.833 -10.752 -26.415  1.00  0.00     0.036 C 
ENDBRANCH   2   4
ENDBRANCH   1   2
BRANCH   1   7
ATOM      7  C   UNL     1       0.068  -9.490 -26.266  1.00  0.00     0.175 C 
BRANCH   7   8
ATOM      8  C   UNL     1       0.427 -10.935 -25.890  1.00  0.00     0.321 C 
ATOM      9  O   UNL     1       0.182 -11.924 -26.560  1.00  0.00    -0.251 OA
BRANCH   8  10
ATOM     10  O   UNL     1       1.124 -11.001 -24.727  1.00  0.00    -0.480 OA
ATOM     11  H   UNL     1       0.673 -10.568 -23.976  1.00  0.00     0.296 HD
ENDBRANCH   8  10
ENDBRANCH   7   8
BRANCH   7  12
ATOM     12  N   UNL     1       0.703  -9.159 -27.568  1.00  0.00    -0.318 NA
ATOM     13  H   UNL     1      -0.017  -8.813 -28.210  1.00  0.00     0.119 HD
ATOM     14  H   UNL     1       1.071  -9.996 -28.021  1.00  0.00     0.119 HD
ENDBRANCH   7  12
ENDBRANCH   1   7
TORSDOF 6
ENDMDL
MODEL 3
REMARK VINA RESULT:      -5.5     12.413     13.462
REMARK SMILES C/C=C/[S@@](=O)C[C@H](N)C(=O)O
REMARK SMILES IDX 6 1 4 2 5 3 3 4 2 5 1 6 7 7 9 8 10 9 11 10 8 12
REMARK H PARENT 11 11 8 13 8 14
ROOT
ATOM      1  C   UNL     1       5.284  -0.800 -24.628  1.00  0.00     0.140 C 
ENDROOT
BRANCH   1   2
ATOM      2  S   UNL     1       4.520  -2.200 -23.726  1.00  0.00     0.047 S 
ATOM      3  O   UNL     1       3.087  -1.817 -23.498  1.00  0.00    -0.255 OA
BRANCH   2   4
ATOM      4  C   UNL     1       5.304  -1.921 -22.144  1.00  0.00     0.070 C 
ATOM      5  C   UNL     1       5.651  -2.986 -21.407  1.00  0.00    -0.021 C 
ATOM      6  C   UNL     1       6.282  -2.883 -20.055  1.00  0.00     0.036 C 
ENDBRANCH   2   4
ENDBRANCH   1   2
BRANCH   1   7
ATOM      7  C   UNL     1       4.575  -0.480 -25.946  1.00  0.00     0.175 C 
BRANCH   7   8
ATOM      8  C   UNL     1       5.548   0.065 -27.001  1.00  0.00     0.321 C 
ATOM      9  O   UNL     1       5.491  -0.156 -28.199  1.00  0.00    -0.251 OA
BRANCH   8  10
ATOM     10  O   UNL     1       6.475   0.896 -26.460  1.00  0.00    -0.480 OA
ATOM     11  H   UNL     1       6.894   1.492 -27.111  1.00  0.00     0.296 HD
ENDBRANCH   8  10
ENDBRANCH   7   8
BRANCH   7  12
ATOM     12  N   UNL     1       3.903  -1.688 -26.489  1.00  0.00    -0.318 NA
ATOM     13  H   UNL     1       2.888  -1.545 -26.460  1.00  0.00     0.119 HD
ATOM     14  H   UNL     1       4.065  -2.499 -25.891  1.00  0.00     0.119 HD
ENDBRANCH   7  12
ENDBRANCH   1   7
TORSDOF 6
ENDMDL
MODEL 4
REMARK VINA RESULT:      -5.3      3.461      5.281
REMARK SMILES C/C=C/[S@@](=O)C[C@H](N)C(=O)O
REMARK SMILES IDX 6 1 4 2 5 3 3 4 2 5 1 6 7 7 9 8 10 9 11 10 8 12
REMARK H PARENT 11 11 8 13 8 14
ROOT
ATOM      1  C   UNL     1      -1.012 -10.239 -26.577  1.00  0.00     0.140 C 
ENDROOT
BRANCH   1   2
ATOM      2  S   UNL     1      -2.074  -9.976 -28.045  1.00  0.00     0.047 S 
ATOM      3  O   UNL     1      -2.215  -8.490 -28.198  1.00  0.00    -0.255 OA
BRANCH   2   4
ATOM      4  C   UNL     1      -3.623 -10.488 -27.315  1.00  0.00     0.070 C 
ATOM      5  C   UNL     1      -4.557  -9.555 -27.079  1.00  0.00    -0.021 C 
ATOM      6  C   UNL     1      -5.877  -9.852 -26.443  1.00  0.00     0.036 C 
ENDBRANCH   2   4
ENDBRANCH   1   2
BRANCH   1   7
ATOM      7  C   UNL     1      -0.025 -11.396 -26.752  1.00  0.00     0.175 C 
BRANCH   7   8
ATOM      8  C   UNL     1       0.639 -11.788 -25.425  1.00  0.00     0.321 C 
ATOM      9  O   UNL     1       0.776 -12.927 -25.009  1.00  0.00    -0.251 OA
BRANCH   8  10
ATOM     10  O   UNL     1       1.131 -10.710 -24.762  1.00  0.00    -0.480 OA
ATOM     11  H   UNL     1       1.813 -10.221 -25.263  1.00  0.00     0.296 HD
ENDBRANCH   8  10
ENDBRANCH   7   8
BRANCH   7  12
ATOM     12  N   UNL     1      -0.706 -12.587 -27.320  1.00  0.00    -0.318 NA
ATOM     13  H   UNL     1      -0.300 -13.432 -26.905  1.00  0.00     0.119 HD
ATOM     14  H   UNL     1      -0.519 -12.677 -28.319  1.00  0.00     0.119 HD
ENDBRANCH   7  12
ENDBRANCH   1   7
TORSDOF 6
ENDMDL
MODEL 5
REMARK VINA RESULT:      -4.9     16.452     18.226
REMARK SMILES C/C=C/[S@@](=O)C[C@H](N)C(=O)O
REMARK SMILES IDX 6 1 4 2 5 3 3 4 2 5 1 6 7 7 9 8 10 9 11 10 8 12
REMARK H PARENT 11 11 8 13 8 14
ROOT
ATOM      1  C   UNL     1       8.298  -0.306 -17.657  1.00  0.00     0.140 C 
ENDROOT
BRANCH   1   2
ATOM      2  S   UNL     1       6.523  -0.757 -17.662  1.00  0.00     0.047 S 
ATOM      3  O   UNL     1       6.293  -1.561 -16.416  1.00  0.00    -0.255 OA
BRANCH   2   4
ATOM      4  C   UNL     1       6.591  -1.980 -18.964  1.00  0.00     0.070 C 
ATOM      5  C   UNL     1       6.093  -1.660 -20.167  1.00  0.00    -0.021 C 
ATOM      6  C   UNL     1       6.061  -2.605 -21.325  1.00  0.00     0.036 C 
ENDBRANCH   2   4
ENDBRANCH   1   2
BRANCH   1   7
ATOM      7  C   UNL     1       8.782   0.204 -16.297  1.00  0.00     0.175 C 
BRANCH   7   8
ATOM      8  C   UNL     1       9.650  -0.835 -15.573  1.00  0.00     0.321 C 
ATOM      9  O   UNL     1      10.801  -0.666 -15.207  1.00  0.00    -0.251 OA
BRANCH   8  10
ATOM     10  O   UNL     1       8.967  -1.980 -15.314  1.00  0.00    -0.480 OA
ATOM     11  H   UNL     1       8.664  -2.054 -14.388  1.00  0.00     0.296 HD
ENDBRANCH   8  10
ENDBRANCH   7   8
BRANCH   7  12
ATOM     12  N   UNL     1       9.561   1.459 -16.452  1.00  0.00    -0.318 NA
ATOM     13  H   UNL     1      10.450   1.362 -15.951  1.00  0.00     0.119 HD
ATOM     14  H   UNL     1       9.093   2.241 -15.994  1.00  0.00     0.119 HD
ENDBRANCH   7  12
ENDBRANCH   1   7
TORSDOF 6
ENDMDL
MODEL 6
REMARK VINA RESULT:      -4.9      2.455      3.101
REMARK SMILES C/C=C/[S@@](=O)C[C@H](N)C(=O)O
REMARK SMILES IDX 6 1 4 2 5 3 3 4 2 5 1 6 7 7 9 8 10 9 11 10 8 12
REMARK H PARENT 11 11 8 13 8 14
ROOT
ATOM      1  C   UNL     1      -1.793  -9.141 -26.563  1.00  0.00     0.140 C 
ENDROOT
BRANCH   1   2
ATOM      2  S   UNL     1      -0.008  -9.345 -26.205  1.00  0.00     0.047 S 
ATOM      3  O   UNL     1       0.716  -8.974 -27.467  1.00  0.00    -0.255 OA
BRANCH   2   4
ATOM      4  C   UNL     1       0.030 -11.132 -26.189  1.00  0.00     0.070 C 
ATOM      5  C   UNL     1       0.753 -11.746 -25.242  1.00  0.00    -0.021 C 
ATOM      6  C   UNL     1       0.890 -13.232 -25.144  1.00  0.00     0.036 C 
ENDBRANCH   2   4
ENDBRANCH   1   2
BRANCH   1   7
ATOM      7  C   UNL     1      -2.358 -10.259 -27.442  1.00  0.00     0.175 C 
BRANCH   7   8
ATOM      8  C   UNL     1      -3.893 -10.250 -27.463  1.00  0.00     0.321 C 
ATOM      9  O   UNL     1      -4.617 -10.729 -26.606  1.00  0.00    -0.251 OA
BRANCH   8  10
ATOM     10  O   UNL     1      -4.385  -9.579 -28.536  1.00  0.00    -0.480 OA
ATOM     11  H   UNL     1      -4.543 -10.148 -29.314  1.00  0.00     0.296 HD
ENDBRANCH   8  10
ENDBRANCH   7   8
BRANCH   7  12
ATOM     12  N   UNL     1      -1.857 -10.137 -28.835  1.00  0.00    -0.318 NA
ATOM     13  H   UNL     1      -0.886  -9.810 -28.811  1.00  0.00     0.119 HD
ATOM     14  H   UNL     1      -2.360  -9.410 -29.345  1.00  0.00     0.119 HD
ENDBRANCH   7  12
ENDBRANCH   1   7
TORSDOF 6
ENDMDL
MODEL 7
REMARK VINA RESULT:      -4.8     11.210     12.475
REMARK SMILES C/C=C/[S@@](=O)C[C@H](N)C(=O)O
REMARK SMILES IDX 6 1 4 2 5 3 3 4 2 5 1 6 7 7 9 8 10 9 11 10 8 12
REMARK H PARENT 11 11 8 13 8 14
ROOT
ATOM      1  C   UNL     1      -8.633  -0.865 -32.266  1.00  0.00     0.140 C 
ENDROOT
BRANCH   1   2
ATOM      2  S   UNL     1      -7.465  -0.583 -30.883  1.00  0.00     0.047 S 
ATOM      3  O   UNL     1      -6.102  -0.477 -31.503  1.00  0.00    -0.255 OA
BRANCH   2   4
ATOM      4  C   UNL     1      -7.504  -2.233 -30.196  1.00  0.00     0.070 C 
ATOM      5  C   UNL     1      -8.457  -3.078 -30.618  1.00  0.00    -0.021 C 
ATOM      6  C   UNL     1      -8.614  -4.470 -30.096  1.00  0.00     0.036 C 
ENDBRANCH   2   4
ENDBRANCH   1   2
BRANCH   1   7
ATOM      7  C   UNL     1      -8.957   0.412 -33.045  1.00  0.00     0.175 C 
BRANCH   7   8
ATOM      8  C   UNL     1     -10.470   0.636 -33.173  1.00  0.00     0.321 C 
ATOM      9  O   UNL     1     -11.302  -0.234 -33.373  1.00  0.00    -0.251 OA
BRANCH   8  10
ATOM     10  O   UNL     1     -10.812   1.934 -32.973  1.00  0.00    -0.480 OA
ATOM     11  H   UNL     1     -10.184   2.569 -33.369  1.00  0.00     0.296 HD
ENDBRANCH   8  10
ENDBRANCH   7   8
BRANCH   7  12
ATOM     12  N   UNL     1      -8.348   1.597 -32.389  1.00  0.00    -0.318 NA
ATOM     13  H   UNL     1      -8.977   1.927 -31.650  1.00  0.00     0.119 HD
ATOM     14  H   UNL     1      -8.280   2.382 -33.037  1.00  0.00     0.119 HD
ENDBRANCH   7  12
ENDBRANCH   1   7
TORSDOF 6
ENDMDL
MODEL 8
REMARK VINA RESULT:      -4.7     11.920     13.166
REMARK SMILES C/C=C/[S@@](=O)C[C@H](N)C(=O)O
REMARK SMILES IDX 6 1 4 2 5 3 3 4 2 5 1 6 7 7 9 8 10 9 11 10 8 12
REMARK H PARENT 11 11 8 13 8 14
ROOT
ATOM      1  C   UNL     1      -8.450  -0.534 -32.327  1.00  0.00     0.140 C 
ENDROOT
BRANCH   1   2
ATOM      2  S   UNL     1      -7.131   0.120 -31.237  1.00  0.00     0.047 S 
ATOM      3  O   UNL     1      -6.124  -0.983 -31.092  1.00  0.00    -0.255 OA
BRANCH   2   4
ATOM      4  C   UNL     1      -8.047   0.081 -29.703  1.00  0.00     0.070 C 
ATOM      5  C   UNL     1      -9.236  -0.539 -29.685  1.00  0.00    -0.021 C 
ATOM      6  C   UNL     1     -10.110  -0.611 -28.474  1.00  0.00     0.036 C 
ENDBRANCH   2   4
ENDBRANCH   1   2
BRANCH   1   7
ATOM      7  C   UNL     1      -9.016   0.522 -33.280  1.00  0.00     0.175 C 
BRANCH   7   8
ATOM      8  C   UNL     1     -10.534   0.684 -33.116  1.00  0.00     0.321 C 
ATOM      9  O   UNL     1     -11.339  -0.227 -33.025  1.00  0.00    -0.251 OA
BRANCH   8  10
ATOM     10  O   UNL     1     -10.900   1.988 -33.019  1.00  0.00    -0.480 OA
ATOM     11  H   UNL     1     -11.146   2.390 -33.875  1.00  0.00     0.296 HD
ENDBRANCH   8  10
ENDBRANCH   7   8
BRANCH   7  12
ATOM     12  N   UNL     1      -8.364   1.837 -33.055  1.00  0.00    -0.318 NA
ATOM     13  H   UNL     1      -7.849   1.806 -32.170  1.00  0.00     0.119 HD
ATOM     14  H   UNL     1      -9.058   2.574 -32.922  1.00  0.00     0.119 HD
ENDBRANCH   7  12
ENDBRANCH   1   7
TORSDOF 6
ENDMDL
MODEL 9
REMARK VINA RESULT:      -4.7     17.312     19.260
REMARK SMILES C/C=C/[S@@](=O)C[C@H](N)C(=O)O
REMARK SMILES IDX 6 1 4 2 5 3 3 4 2 5 1 6 7 7 9 8 10 9 11 10 8 12
REMARK H PARENT 11 11 8 13 8 14
ROOT
ATOM      1  C   UNL     1       9.294  -0.599 -17.053  1.00  0.00     0.140 C 
ENDROOT
BRANCH   1   2
ATOM      2  S   UNL     1       7.547  -0.220 -17.453  1.00  0.00     0.047 S 
ATOM      3  O   UNL     1       6.715  -1.125 -16.592  1.00  0.00    -0.255 OA
BRANCH   2   4
ATOM      4  C   UNL     1       7.500  -0.989 -19.067  1.00  0.00     0.070 C 
ATOM      5  C   UNL     1       6.433  -1.736 -19.387  1.00  0.00    -0.021 C 
ATOM      6  C   UNL     1       6.292  -2.455 -20.690  1.00  0.00     0.036 C 
ENDBRANCH   2   4
ENDBRANCH   1   2
BRANCH   1   7
ATOM      7  C   UNL     1       9.717  -0.081 -15.676  1.00  0.00     0.175 C 
BRANCH   7   8
ATOM      8  C   UNL     1      10.925   0.863 -15.767  1.00  0.00     0.321 C 
ATOM      9  O   UNL     1      12.089   0.545 -15.588  1.00  0.00    -0.251 OA
BRANCH   8  10
ATOM     10  O   UNL     1      10.565   2.118 -16.140  1.00  0.00    -0.480 OA
ATOM     11  H   UNL     1      10.738   2.310 -17.083  1.00  0.00     0.296 HD
ENDBRANCH   8  10
ENDBRANCH   7   8
BRANCH   7  12
ATOM     12  N   UNL     1       8.596   0.635 -15.016  1.00  0.00    -0.318 NA
ATOM     13  H   UNL     1       8.709   0.564 -14.000  1.00  0.00     0.119 HD
ATOM     14  H   UNL     1       7.704   0.178 -15.207  1.00  0.00     0.119 HD
ENDBRANCH   7  12
ENDBRANCH   1   7
TORSDOF 6
ENDMDL
MODEL 10
REMARK VINA RESULT:      -4.7     11.352     13.047
REMARK SMILES C/C=C/[S@@](=O)C[C@H](N)C(=O)O
REMARK SMILES IDX 6 1 4 2 5 3 3 4 2 5 1 6 7 7 9 8 10 9 11 10 8 12
REMARK H PARENT 11 11 8 13 8 14
ROOT
ATOM      1  C   UNL     1      -5.749  -0.021 -31.211  1.00  0.00     0.140 C 
ENDROOT
BRANCH   1   2
ATOM      2  S   UNL     1      -6.612   1.269 -32.185  1.00  0.00     0.047 S 
ATOM      3  O   UNL     1      -6.927   2.377 -31.224  1.00  0.00    -0.255 OA
BRANCH   2   4
ATOM      4  C   UNL     1      -8.167   0.413 -32.391  1.00  0.00     0.070 C 
ATOM      5  C   UNL     1      -8.892   0.661 -33.491  1.00  0.00    -0.021 C 
ATOM      6  C   UNL     1     -10.222   0.034 -33.761  1.00  0.00     0.036 C 
ENDBRANCH   2   4
ENDBRANCH   1   2
BRANCH   1   7
ATOM      7  C   UNL     1      -4.394   0.443 -30.672  1.00  0.00     0.175 C 
BRANCH   7   8
ATOM      8  C   UNL     1      -3.273  -0.548 -31.013  1.00  0.00     0.321 C 
ATOM      9  O   UNL     1      -3.354  -1.763 -30.940  1.00  0.00    -0.251 OA
BRANCH   8  10
ATOM     10  O   UNL     1      -2.162   0.078 -31.479  1.00  0.00    -0.480 OA
ATOM     11  H   UNL     1      -2.186   0.253 -32.440  1.00  0.00     0.296 HD
ENDBRANCH   8  10
ENDBRANCH   7   8
BRANCH   7  12
ATOM     12  N   UNL     1      -4.039   1.778 -31.219  1.00  0.00    -0.318 NA
ATOM     13  H   UNL     1      -4.121   2.475 -30.473  1.00  0.00     0.119 HD
ATOM     14  H   UNL     1      -4.713   2.077 -31.925  1.00  0.00     0.119 HD
ENDBRANCH   7  12
ENDBRANCH   1   7
TORSDOF 6
ENDMDL
