MODEL 1
REMARK VINA RESULT:      -5.3      0.000      0.000
REMARK SMILES C=CCSC[C@H](N)C(=O)O
REMARK SMILES IDX 5 1 4 2 3 3 2 4 1 5 6 6 8 7 9 8 10 9 7 11
REMARK H PARENT 10 10 7 12 7 13
ROOT
ATOM      1  C   UNL     1       0.358 -10.613 -26.702  1.00  0.00     0.100 C 
ENDROOT
BRANCH   1   2
ATOM      2  S   UNL     1      -0.880  -9.270 -26.772  1.00  0.00    -0.156 SA
BRANCH   2   3
ATOM      3  C   UNL     1      -2.024 -10.027 -27.965  1.00  0.00     0.096 C 
BRANCH   3   4
ATOM      4  C   UNL     1      -3.285  -9.222 -28.004  1.00  0.00    -0.024 C 
ATOM      5  C   UNL     1      -4.407  -9.539 -27.341  1.00  0.00     0.005 C 
ENDBRANCH   3   4
ENDBRANCH   2   3
ENDBRANCH   1   2
BRANCH   1   6
ATOM      6  C   UNL     1       0.492 -11.178 -25.281  1.00  0.00     0.172 C 
BRANCH   6   7
ATOM      7  C   UNL     1       0.820 -12.676 -25.358  1.00  0.00     0.321 C 
ATOM      8  O   UNL     1       1.253 -13.256 -26.341  1.00  0.00    -0.251 OA
BRANCH   7   9
ATOM      9  O   UNL     1       0.549 -13.297 -24.179  1.00  0.00    -0.480 OA
ATOM     10  H   UNL     1      -0.240 -13.873 -24.354  1.00  0.00     0.296 HD
ENDBRANCH   7   9
ENDBRANCH   6   7
BRANCH   6  11
ATOM     11  N   UNL     1       1.557 -10.509 -24.461  1.00  0.00    -0.318 NA
ATOM     12  H   UNL     1       1.342  -9.503 -24.495  1.00  0.00     0.119 HD
ATOM     13  H   UNL     1       2.436 -10.561 -24.991  1.00  0.00     0.119 HD
ENDBRANCH   6  11
ENDBRANCH   1   6
TORSDOF 7
ENDMDL
MODEL 2
REMARK VINA RESULT:      -5.2      1.670      1.882
REMARK SMILES C=CCSC[C@H](N)C(=O)O
REMARK SMILES IDX 5 1 4 2 3 3 2 4 1 5 6 6 8 7 9 8 10 9 7 11
REMARK H PARENT 10 10 7 12 7 13
ROOT
ATOM      1  C   UNL     1      -1.460  -9.963 -26.210  1.00  0.00     0.100 C 
ENDROOT
BRANCH   1   2
ATOM      2  S   UNL     1      -2.067 -10.448 -27.866  1.00  0.00    -0.156 SA
BRANCH   2   3
ATOM      3  C   UNL     1      -3.123  -9.006 -28.194  1.00  0.00     0.096 C 
BRANCH   3   4
ATOM      4  C   UNL     1      -4.109  -8.864 -27.079  1.00  0.00    -0.024 C 
ATOM      5  C   UNL     1      -5.181  -9.651 -26.909  1.00  0.00     0.005 C 
ENDBRANCH   3   4
ENDBRANCH   2   3
ENDBRANCH   1   2
BRANCH   1   6
ATOM      6  C   UNL     1       0.073  -9.895 -26.173  1.00  0.00     0.172 C 
BRANCH   6   7
ATOM      7  C   UNL     1       0.631 -11.239 -25.685  1.00  0.00     0.321 C 
ATOM      8  O   UNL     1       0.492 -12.311 -26.252  1.00  0.00    -0.251 OA
BRANCH   7   9
ATOM      9  O   UNL     1       1.298 -11.093 -24.510  1.00  0.00    -0.480 OA
ATOM     10  H   UNL     1       1.703 -11.978 -24.319  1.00  0.00     0.296 HD
ENDBRANCH   7   9
ENDBRANCH   6   7
BRANCH   6  11
ATOM     11  N   UNL     1       0.697  -9.586 -27.503  1.00  0.00    -0.318 NA
ATOM     12  H   UNL     1      -0.024  -9.084 -28.039  1.00  0.00     0.119 HD
ATOM     13  H   UNL     1       0.776 -10.470 -28.022  1.00  0.00     0.119 HD
ENDBRANCH   6  11
ENDBRANCH   1   6
TORSDOF 7
ENDMDL
MODEL 3
REMARK VINA RESULT:      -4.9      1.893      2.476
REMARK SMILES C=CCSC[C@H](N)C(=O)O
REMARK SMILES IDX 5 1 4 2 3 3 2 4 1 5 6 6 8 7 9 8 10 9 7 11
REMARK H PARENT 10 10 7 12 7 13
ROOT
ATOM      1  C   UNL     1      -1.545 -10.147 -27.295  1.00  0.00     0.100 C 
ENDROOT
BRANCH   1   2
ATOM      2  S   UNL     1      -2.811  -8.843 -27.494  1.00  0.00    -0.156 SA
BRANCH   2   3
ATOM      3  C   UNL     1      -4.232  -9.909 -27.879  1.00  0.00     0.096 C 
BRANCH   3   4
ATOM      4  C   UNL     1      -5.249  -9.772 -26.790  1.00  0.00    -0.024 C 
ATOM      5  C   UNL     1      -5.730 -10.795 -26.068  1.00  0.00     0.005 C 
ENDBRANCH   3   4
ENDBRANCH   2   3
ENDBRANCH   1   2
BRANCH   1   6
ATOM      6  C   UNL     1      -0.311  -9.620 -26.549  1.00  0.00     0.172 C 
BRANCH   6   7
ATOM      7  C   UNL     1       0.412 -10.793 -25.872  1.00  0.00     0.321 C 
ATOM      8  O   UNL     1       1.063 -10.723 -24.842  1.00  0.00    -0.251 OA
BRANCH   7   9
ATOM      9  O   UNL     1       0.252 -11.941 -26.581  1.00  0.00    -0.480 OA
ATOM     10  H   UNL     1      -0.727 -12.101 -26.614  1.00  0.00     0.296 HD
ENDBRANCH   7   9
ENDBRANCH   6   7
BRANCH   6  11
ATOM     11  N   UNL     1       0.674  -8.912 -27.433  1.00  0.00    -0.318 NA
ATOM     12  H   UNL     1       0.389  -9.130 -28.398  1.00  0.00     0.119 HD
ATOM     13  H   UNL     1       1.572  -9.406 -27.356  1.00  0.00     0.119 HD
ENDBRANCH   6  11
ENDBRANCH   1   6
TORSDOF 7
ENDMDL
MODEL 4
REMARK VINA RESULT:      -4.9      3.577      5.238
REMARK SMILES C=CCSC[C@H](N)C(=O)O
REMARK SMILES IDX 5 1 4 2 3 3 2 4 1 5 6 6 8 7 9 8 10 9 7 11
REMARK H PARENT 10 10 7 12 7 13
ROOT
ATOM      1  C   UNL     1      -1.328  -9.241 -26.370  1.00  0.00     0.100 C 
ENDROOT
BRANCH   1   2
ATOM      2  S   UNL     1       0.429  -9.582 -26.745  1.00  0.00    -0.156 SA
BRANCH   2   3
ATOM      3  C   UNL     1       0.818 -10.598 -25.288  1.00  0.00     0.096 C 
BRANCH   3   4
ATOM      4  C   UNL     1       0.548 -12.033 -25.612  1.00  0.00    -0.024 C 
ATOM      5  C   UNL     1       0.926 -13.067 -24.848  1.00  0.00     0.005 C 
ENDBRANCH   3   4
ENDBRANCH   2   3
ENDBRANCH   1   2
BRANCH   1   6
ATOM      6  C   UNL     1      -2.259 -10.190 -27.138  1.00  0.00     0.172 C 
BRANCH   6   7
ATOM      7  C   UNL     1      -3.449  -9.395 -27.695  1.00  0.00     0.321 C 
ATOM      8  O   UNL     1      -4.559  -9.339 -27.193  1.00  0.00    -0.251 OA
BRANCH   7   9
ATOM      9  O   UNL     1      -3.114  -8.760 -28.849  1.00  0.00    -0.480 OA
ATOM     10  H   UNL     1      -2.144  -8.566 -28.777  1.00  0.00     0.296 HD
ENDBRANCH   7   9
ENDBRANCH   6   7
BRANCH   6  11
ATOM     11  N   UNL     1      -1.593 -10.897 -28.283  1.00  0.00    -0.318 NA
ATOM     12  H   UNL     1      -0.691 -11.231 -27.916  1.00  0.00     0.119 HD
ATOM     13  H   UNL     1      -1.299 -10.182 -28.960  1.00  0.00     0.119 HD
ENDBRANCH   6  11
ENDBRANCH   1   6
TORSDOF 7
ENDMDL
MODEL 5
REMARK VINA RESULT:      -4.9     13.234     13.981
REMARK SMILES C=CCSC[C@H](N)C(=O)O
REMARK SMILES IDX 5 1 4 2 3 3 2 4 1 5 6 6 8 7 9 8 10 9 7 11
REMARK H PARENT 10 10 7 12 7 13
ROOT
ATOM      1  C   UNL     1       6.194  -1.304 -18.766  1.00  0.00     0.100 C 
ENDROOT
BRANCH   1   2
ATOM      2  S   UNL     1       6.564  -2.626 -19.973  1.00  0.00    -0.156 SA
BRANCH   2   3
ATOM      3  C   UNL     1       5.939  -1.803 -21.468  1.00  0.00     0.096 C 
BRANCH   3   4
ATOM      4  C   UNL     1       5.000  -2.730 -22.174  1.00  0.00    -0.024 C 
ATOM      5  C   UNL     1       4.324  -2.419 -23.289  1.00  0.00     0.005 C 
ENDBRANCH   3   4
ENDBRANCH   2   3
ENDBRANCH   1   2
BRANCH   1   6
ATOM      6  C   UNL     1       7.462  -0.843 -18.032  1.00  0.00     0.172 C 
BRANCH   6   7
ATOM      7  C   UNL     1       7.368  -1.244 -16.553  1.00  0.00     0.321 C 
ATOM      8  O   UNL     1       8.304  -1.291 -15.772  1.00  0.00    -0.251 OA
BRANCH   7   9
ATOM      9  O   UNL     1       6.091  -1.565 -16.215  1.00  0.00    -0.480 OA
ATOM     10  H   UNL     1       5.537  -0.789 -16.490  1.00  0.00     0.296 HD
ENDBRANCH   7   9
ENDBRANCH   6   7
BRANCH   6  11
ATOM     11  N   UNL     1       8.729  -1.422 -18.593  1.00  0.00    -0.318 NA
ATOM     12  H   UNL     1       9.435  -1.316 -17.851  1.00  0.00     0.119 HD
ATOM     13  H   UNL     1       9.074  -0.775 -19.313  1.00  0.00     0.119 HD
ENDBRANCH   6  11
ENDBRANCH   1   6
TORSDOF 7
ENDMDL
MODEL 6
REMARK VINA RESULT:      -4.8      2.715      3.551
REMARK SMILES C=CCSC[C@H](N)C(=O)O
REMARK SMILES IDX 5 1 4 2 3 3 2 4 1 5 6 6 8 7 9 8 10 9 7 11
REMARK H PARENT 10 10 7 12 7 13
ROOT
ATOM      1  C   UNL     1      -2.838 -10.702 -27.432  1.00  0.00     0.100 C 
ENDROOT
BRANCH   1   2
ATOM      2  S   UNL     1      -3.380  -8.956 -27.484  1.00  0.00    -0.156 SA
BRANCH   2   3
ATOM      3  C   UNL     1      -5.108  -9.200 -26.977  1.00  0.00     0.096 C 
BRANCH   3   4
ATOM      4  C   UNL     1      -5.340 -10.658 -26.732  1.00  0.00    -0.024 C 
ATOM      5  C   UNL     1      -6.008 -11.154 -25.681  1.00  0.00     0.005 C 
ENDBRANCH   3   4
ENDBRANCH   2   3
ENDBRANCH   1   2
BRANCH   1   6
ATOM      6  C   UNL     1      -1.353 -10.839 -27.798  1.00  0.00     0.172 C 
BRANCH   6   7
ATOM      7  C   UNL     1      -0.505 -10.058 -26.784  1.00  0.00     0.321 C 
ATOM      8  O   UNL     1      -0.542 -10.200 -25.573  1.00  0.00    -0.251 OA
BRANCH   7   9
ATOM      9  O   UNL     1       0.298  -9.158 -27.410  1.00  0.00    -0.480 OA
ATOM     10  H   UNL     1       1.207  -9.307 -27.041  1.00  0.00     0.296 HD
ENDBRANCH   7   9
ENDBRANCH   6   7
BRANCH   6  11
ATOM     11  N   UNL     1      -0.864 -12.258 -27.821  1.00  0.00    -0.318 NA
ATOM     12  H   UNL     1      -0.085 -12.295 -27.149  1.00  0.00     0.119 HD
ATOM     13  H   UNL     1      -0.383 -12.407 -28.717  1.00  0.00     0.119 HD
ENDBRANCH   6  11
ENDBRANCH   1   6
TORSDOF 7
ENDMDL
MODEL 7
REMARK VINA RESULT:      -4.6     11.090     12.169
REMARK SMILES C=CCSC[C@H](N)C(=O)O
REMARK SMILES IDX 5 1 4 2 3 3 2 4 1 5 6 6 8 7 9 8 10 9 7 11
REMARK H PARENT 10 10 7 12 7 13
ROOT
ATOM      1  C   UNL     1       4.329  -2.373 -23.407  1.00  0.00     0.100 C 
ENDROOT
BRANCH   1   2
ATOM      2  S   UNL     1       5.599  -1.806 -22.221  1.00  0.00    -0.156 SA
BRANCH   2   3
ATOM      3  C   UNL     1       5.587  -3.246 -21.112  1.00  0.00     0.096 C 
BRANCH   3   4
ATOM      4  C   UNL     1       6.375  -2.918 -19.883  1.00  0.00    -0.024 C 
ATOM      5  C   UNL     1       6.805  -1.689 -19.564  1.00  0.00     0.005 C 
ENDBRANCH   3   4
ENDBRANCH   2   3
ENDBRANCH   1   2
BRANCH   1   6
ATOM      6  C   UNL     1       3.785  -1.207 -24.246  1.00  0.00     0.172 C 
BRANCH   6   7
ATOM      7  C   UNL     1       4.527  -1.157 -25.589  1.00  0.00     0.321 C 
ATOM      8  O   UNL     1       5.520  -0.489 -25.824  1.00  0.00    -0.251 OA
BRANCH   7   9
ATOM      9  O   UNL     1       3.921  -1.951 -26.511  1.00  0.00    -0.480 OA
ATOM     10  H   UNL     1       4.543  -2.709 -26.663  1.00  0.00     0.296 HD
ENDBRANCH   7   9
ENDBRANCH   6   7
BRANCH   6  11
ATOM     11  N   UNL     1       2.314  -1.300 -24.528  1.00  0.00    -0.318 NA
ATOM     12  H   UNL     1       2.036  -0.368 -24.868  1.00  0.00     0.119 HD
ATOM     13  H   UNL     1       1.826  -1.354 -23.625  1.00  0.00     0.119 HD
ENDBRANCH   6  11
ENDBRANCH   1   6
TORSDOF 7
ENDMDL
MODEL 8
REMARK VINA RESULT:      -4.5     15.282     16.106
REMARK SMILES C=CCSC[C@H](N)C(=O)O
REMARK SMILES IDX 5 1 4 2 3 3 2 4 1 5 6 6 8 7 9 8 10 9 7 11
REMARK H PARENT 10 10 7 12 7 13
ROOT
ATOM      1  C   UNL     1       7.111  -0.104 -17.139  1.00  0.00     0.100 C 
ENDROOT
BRANCH   1   2
ATOM      2  S   UNL     1       6.300  -1.579 -17.854  1.00  0.00    -0.156 SA
BRANCH   2   3
ATOM      3  C   UNL     1       6.853  -1.379 -19.574  1.00  0.00     0.096 C 
BRANCH   3   4
ATOM      4  C   UNL     1       6.291  -2.495 -20.396  1.00  0.00    -0.024 C 
ATOM      5  C   UNL     1       5.667  -2.331 -21.571  1.00  0.00     0.005 C 
ENDBRANCH   3   4
ENDBRANCH   2   3
ENDBRANCH   1   2
BRANCH   1   6
ATOM      6  C   UNL     1       8.591  -0.372 -16.832  1.00  0.00     0.172 C 
BRANCH   6   7
ATOM      7  C   UNL     1       9.238   0.909 -16.288  1.00  0.00     0.321 C 
ATOM      8  O   UNL     1      10.432   1.075 -16.101  1.00  0.00    -0.251 OA
BRANCH   7   9
ATOM      9  O   UNL     1       8.298   1.852 -16.016  1.00  0.00    -0.480 OA
ATOM     10  H   UNL     1       7.435   1.466 -16.316  1.00  0.00     0.296 HD
ENDBRANCH   7   9
ENDBRANCH   6   7
BRANCH   6  11
ATOM     11  N   UNL     1       8.813  -1.469 -15.831  1.00  0.00    -0.318 NA
ATOM     12  H   UNL     1       9.370  -1.047 -15.075  1.00  0.00     0.119 HD
ATOM     13  H   UNL     1       9.477  -2.136 -16.242  1.00  0.00     0.119 HD
ENDBRANCH   6  11
ENDBRANCH   1   6
TORSDOF 7
ENDMDL
MODEL 9
REMARK VINA RESULT:      -4.5     12.583     13.689
REMARK SMILES C=CCSC[C@H](N)C(=O)O
REMARK SMILES IDX 5 1 4 2 3 3 2 4 1 5 6 6 8 7 9 8 10 9 7 11
REMARK H PARENT 10 10 7 12 7 13
ROOT
ATOM      1  C   UNL     1      -5.686   0.029 -31.249  1.00  0.00     0.100 C 
ENDROOT
BRANCH   1   2
ATOM      2  S   UNL     1      -6.867   0.935 -32.312  1.00  0.00    -0.156 SA
BRANCH   2   3
ATOM      3  C   UNL     1      -8.224  -0.275 -32.292  1.00  0.00     0.096 C 
BRANCH   3   4
ATOM      4  C   UNL     1      -8.992  -0.162 -33.570  1.00  0.00    -0.024 C 
ATOM      5  C   UNL     1     -10.077   0.606 -33.738  1.00  0.00     0.005 C 
ENDBRANCH   3   4
ENDBRANCH   2   3
ENDBRANCH   1   2
BRANCH   1   6
ATOM      6  C   UNL     1      -4.298   0.684 -31.270  1.00  0.00     0.172 C 
BRANCH   6   7
ATOM      7  C   UNL     1      -3.220  -0.407 -31.193  1.00  0.00     0.321 C 
ATOM      8  O   UNL     1      -3.419  -1.580 -30.923  1.00  0.00    -0.251 OA
BRANCH   7   9
ATOM      9  O   UNL     1      -1.988   0.106 -31.450  1.00  0.00    -0.480 OA
ATOM     10  H   UNL     1      -1.909   0.914 -30.880  1.00  0.00     0.296 HD
ENDBRANCH   7   9
ENDBRANCH   6   7
BRANCH   6  11
ATOM     11  N   UNL     1      -4.037   1.512 -32.494  1.00  0.00    -0.318 NA
ATOM     12  H   UNL     1      -3.218   1.085 -32.950  1.00  0.00     0.119 HD
ATOM     13  H   UNL     1      -3.664   2.417 -32.184  1.00  0.00     0.119 HD
ENDBRANCH   6  11
ENDBRANCH   1   6
TORSDOF 7
ENDMDL
MODEL 10
REMARK VINA RESULT:      -4.4     13.736     15.321
REMARK SMILES C=CCSC[C@H](N)C(=O)O
REMARK SMILES IDX 5 1 4 2 3 3 2 4 1 5 6 6 8 7 9 8 10 9 7 11
REMARK H PARENT 10 10 7 12 7 13
ROOT
ATOM      1  C   UNL     1      -8.666  -0.853 -32.247  1.00  0.00     0.100 C 
ENDROOT
BRANCH   1   2
ATOM      2  S   UNL     1      -7.203  -0.347 -31.273  1.00  0.00    -0.156 SA
BRANCH   2   3
ATOM      3  C   UNL     1      -7.012  -1.857 -30.279  1.00  0.00     0.096 C 
BRANCH   3   4
ATOM      4  C   UNL     1      -8.210  -2.728 -30.487  1.00  0.00    -0.024 C 
ATOM      5  C   UNL     1      -8.219  -4.058 -30.320  1.00  0.00     0.005 C 
ENDBRANCH   3   4
ENDBRANCH   2   3
ENDBRANCH   1   2
BRANCH   1   6
ATOM      6  C   UNL     1      -9.098   0.250 -33.224  1.00  0.00     0.172 C 
BRANCH   6   7
ATOM      7  C   UNL     1     -10.598   0.525 -33.050  1.00  0.00     0.321 C 
ATOM      8  O   UNL     1     -11.470  -0.325 -32.985  1.00  0.00    -0.251 OA
BRANCH   7   9
ATOM      9  O   UNL     1     -10.846   1.861 -32.992  1.00  0.00    -0.480 OA
ATOM     10  H   UNL     1     -11.210   2.027 -32.084  1.00  0.00     0.296 HD
ENDBRANCH   7   9
ENDBRANCH   6   7
BRANCH   6  11
ATOM     11  N   UNL     1      -8.361   1.545 -33.038  1.00  0.00    -0.318 NA
ATOM     12  H   UNL     1      -8.675   2.156 -33.805  1.00  0.00     0.119 HD
ATOM     13  H   UNL     1      -7.377   1.381 -33.283  1.00  0.00     0.119 HD
ENDBRANCH   6  11
ENDBRANCH   1   6
TORSDOF 7
ENDMDL
