MODEL 1
REMARK VINA RESULT:      -5.5      0.000      0.000
REMARK SMILES C=CC[S@@](=O)C[C@H](N)C(=O)O
REMARK SMILES IDX 6 1 4 2 5 3 3 4 2 5 1 6 7 7 9 8 10 9 11 10 8 12
REMARK H PARENT 11 11 8 13 8 14
ROOT
ATOM      1  C   UNL     1       0.287 -10.725 -27.028  1.00  0.00     0.136 C 
ENDROOT
BRANCH   1   2
ATOM      2  S   UNL     1      -0.738  -9.228 -27.245  1.00  0.00     0.027 S 
ATOM      3  O   UNL     1      -1.173  -8.790 -25.875  1.00  0.00    -0.259 OA
BRANCH   2   4
ATOM      4  C   UNL     1      -2.169 -10.063 -28.022  1.00  0.00     0.131 C 
BRANCH   4   5
ATOM      5  C   UNL     1      -3.388  -9.200 -27.907  1.00  0.00    -0.021 C 
ATOM      6  C   UNL     1      -4.508  -9.543 -27.257  1.00  0.00     0.005 C 
ENDBRANCH   4   5
ENDBRANCH   2   4
ENDBRANCH   1   2
BRANCH   1   7
ATOM      7  C   UNL     1       0.337 -11.181 -25.566  1.00  0.00     0.174 C 
BRANCH   7   8
ATOM      8  C   UNL     1       0.766 -12.653 -25.442  1.00  0.00     0.321 C 
ATOM      9  O   UNL     1       1.344 -13.299 -26.298  1.00  0.00    -0.251 OA
BRANCH   8  10
ATOM     10  O   UNL     1       0.486 -13.163 -24.215  1.00  0.00    -0.480 OA
ATOM     11  H   UNL     1       0.185 -14.091 -24.233  1.00  0.00     0.296 HD
ENDBRANCH   8  10
ENDBRANCH   7   8
BRANCH   7  12
ATOM     12  N   UNL     1       1.278 -10.338 -24.789  1.00  0.00    -0.318 NA
ATOM     13  H   UNL     1       1.742 -10.923 -24.087  1.00  0.00     0.119 HD
ATOM     14  H   UNL     1       0.778  -9.636 -24.241  1.00  0.00     0.119 HD
ENDBRANCH   7  12
ENDBRANCH   1   7
TORSDOF 7
ENDMDL
MODEL 2
REMARK VINA RESULT:      -5.0     14.657     15.548
REMARK SMILES C=CC[S@@](=O)C[C@H](N)C(=O)O
REMARK SMILES IDX 6 1 4 2 5 3 3 4 2 5 1 6 7 7 9 8 10 9 11 10 8 12
REMARK H PARENT 11 11 8 13 8 14
ROOT
ATOM      1  C   UNL     1       7.723  -0.249 -18.044  1.00  0.00     0.136 C 
ENDROOT
BRANCH   1   2
ATOM      2  S   UNL     1       6.303  -1.323 -18.455  1.00  0.00     0.027 S 
ATOM      3  O   UNL     1       6.127  -2.278 -17.309  1.00  0.00    -0.259 OA
BRANCH   2   4
ATOM      4  C   UNL     1       7.124  -2.249 -19.803  1.00  0.00     0.131 C 
BRANCH   4   5
ATOM      5  C   UNL     1       6.094  -2.862 -20.703  1.00  0.00    -0.021 C 
ATOM      6  C   UNL     1       5.540  -2.249 -21.758  1.00  0.00     0.005 C 
ENDBRANCH   4   5
ENDBRANCH   2   4
ENDBRANCH   1   2
BRANCH   1   7
ATOM      7  C   UNL     1       7.684   0.223 -16.586  1.00  0.00     0.174 C 
BRANCH   7   8
ATOM      8  C   UNL     1       8.799  -0.424 -15.747  1.00  0.00     0.321 C 
ATOM      9  O   UNL     1       9.681   0.175 -15.155  1.00  0.00    -0.251 OA
BRANCH   8  10
ATOM     10  O   UNL     1       8.663  -1.773 -15.673  1.00  0.00    -0.480 OA
ATOM     11  H   UNL     1       9.383  -2.215 -15.184  1.00  0.00     0.296 HD
ENDBRANCH   8  10
ENDBRANCH   7   8
BRANCH   7  12
ATOM     12  N   UNL     1       7.820   1.698 -16.512  1.00  0.00    -0.318 NA
ATOM     13  H   UNL     1       6.934   2.094 -16.182  1.00  0.00     0.119 HD
ATOM     14  H   UNL     1       7.946   2.104 -17.441  1.00  0.00     0.119 HD
ENDBRANCH   7  12
ENDBRANCH   1   7
TORSDOF 7
ENDMDL
MODEL 3
REMARK VINA RESULT:      -5.0      1.894      2.269
REMARK SMILES C=CC[S@@](=O)C[C@H](N)C(=O)O
REMARK SMILES IDX 6 1 4 2 5 3 3 4 2 5 1 6 7 7 9 8 10 9 11 10 8 12
REMARK H PARENT 11 11 8 13 8 14
ROOT
ATOM      1  C   UNL     1      -1.412 -10.083 -28.005  1.00  0.00     0.136 C 
ENDROOT
BRANCH   1   2
ATOM      2  S   UNL     1      -2.991  -9.171 -27.892  1.00  0.00     0.027 S 
ATOM      3  O   UNL     1      -2.901  -8.282 -26.686  1.00  0.00    -0.259 OA
BRANCH   2   4
ATOM      4  C   UNL     1      -4.028 -10.605 -27.426  1.00  0.00     0.131 C 
BRANCH   4   5
ATOM      5  C   UNL     1      -5.240 -10.138 -26.678  1.00  0.00    -0.021 C 
ATOM      6  C   UNL     1      -5.941 -10.886 -25.816  1.00  0.00     0.005 C 
ENDBRANCH   4   5
ENDBRANCH   2   4
ENDBRANCH   1   2
BRANCH   1   7
ATOM      7  C   UNL     1      -0.454  -9.719 -26.865  1.00  0.00     0.174 C 
BRANCH   7   8
ATOM      8  C   UNL     1       0.147 -10.970 -26.203  1.00  0.00     0.321 C 
ATOM      9  O   UNL     1       0.209 -12.079 -26.705  1.00  0.00    -0.251 OA
BRANCH   8  10
ATOM     10  O   UNL     1       0.682 -10.695 -24.986  1.00  0.00    -0.480 OA
ATOM     11  H   UNL     1       0.449 -11.346 -24.296  1.00  0.00     0.296 HD
ENDBRANCH   8  10
ENDBRANCH   7   8
BRANCH   7  12
ATOM     12  N   UNL     1       0.648  -8.861 -27.364  1.00  0.00    -0.318 NA
ATOM     13  H   UNL     1       0.486  -7.899 -27.048  1.00  0.00     0.119 HD
ATOM     14  H   UNL     1       0.633  -8.796 -28.383  1.00  0.00     0.119 HD
ENDBRANCH   7  12
ENDBRANCH   1   7
TORSDOF 7
ENDMDL
MODEL 4
REMARK VINA RESULT:      -4.6     12.214     13.574
REMARK SMILES C=CC[S@@](=O)C[C@H](N)C(=O)O
REMARK SMILES IDX 6 1 4 2 5 3 3 4 2 5 1 6 7 7 9 8 10 9 11 10 8 12
REMARK H PARENT 11 11 8 13 8 14
ROOT
ATOM      1  C   UNL     1      -5.785  -0.056 -31.237  1.00  0.00     0.136 C 
ENDROOT
BRANCH   1   2
ATOM      2  S   UNL     1      -6.912   0.844 -32.358  1.00  0.00     0.027 S 
ATOM      3  O   UNL     1      -7.300   2.117 -31.662  1.00  0.00    -0.259 OA
BRANCH   2   4
ATOM      4  C   UNL     1      -8.327  -0.305 -32.201  1.00  0.00     0.131 C 
BRANCH   4   5
ATOM      5  C   UNL     1      -9.106  -0.335 -33.481  1.00  0.00    -0.021 C 
ATOM      6  C   UNL     1     -10.233   0.355 -33.706  1.00  0.00     0.005 C 
ENDBRANCH   4   5
ENDBRANCH   2   4
ENDBRANCH   1   2
BRANCH   1   7
ATOM      7  C   UNL     1      -4.412   0.619 -31.138  1.00  0.00     0.174 C 
BRANCH   7   8
ATOM      8  C   UNL     1      -3.268  -0.408 -31.162  1.00  0.00     0.321 C 
ATOM      9  O   UNL     1      -3.392  -1.615 -31.038  1.00  0.00    -0.251 OA
BRANCH   8  10
ATOM     10  O   UNL     1      -2.067   0.174 -31.411  1.00  0.00    -0.480 OA
ATOM     11  H   UNL     1      -1.302  -0.353 -31.107  1.00  0.00     0.296 HD
ENDBRANCH   8  10
ENDBRANCH   7   8
BRANCH   7  12
ATOM     12  N   UNL     1      -4.222   1.579 -32.252  1.00  0.00    -0.318 NA
ATOM     13  H   UNL     1      -3.493   1.218 -32.877  1.00  0.00     0.119 HD
ATOM     14  H   UNL     1      -3.848   2.467 -31.915  1.00  0.00     0.119 HD
ENDBRANCH   7  12
ENDBRANCH   1   7
TORSDOF 7
ENDMDL
MODEL 5
REMARK VINA RESULT:      -4.6     15.666     16.634
REMARK SMILES C=CC[S@@](=O)C[C@H](N)C(=O)O
REMARK SMILES IDX 6 1 4 2 5 3 3 4 2 5 1 6 7 7 9 8 10 9 11 10 8 12
REMARK H PARENT 11 11 8 13 8 14
ROOT
ATOM      1  C   UNL     1       8.375  -0.842 -16.514  1.00  0.00     0.136 C 
ENDROOT
BRANCH   1   2
ATOM      2  S   UNL     1       6.782  -0.856 -17.409  1.00  0.00     0.027 S 
ATOM      3  O   UNL     1       6.060  -2.109 -17.004  1.00  0.00    -0.259 OA
BRANCH   2   4
ATOM      4  C   UNL     1       7.480  -1.154 -19.074  1.00  0.00     0.131 C 
BRANCH   4   5
ATOM      5  C   UNL     1       6.409  -1.653 -19.996  1.00  0.00    -0.021 C 
ATOM      6  C   UNL     1       6.433  -2.836 -20.624  1.00  0.00     0.005 C 
ENDBRANCH   4   5
ENDBRANCH   2   4
ENDBRANCH   1   2
BRANCH   1   7
ATOM      7  C   UNL     1       8.675   0.528 -15.895  1.00  0.00     0.174 C 
BRANCH   7   8
ATOM      8  C   UNL     1      10.168   0.883 -15.990  1.00  0.00     0.321 C 
ATOM      9  O   UNL     1      11.089   0.085 -16.001  1.00  0.00    -0.251 OA
BRANCH   8  10
ATOM     10  O   UNL     1      10.366   2.219 -16.132  1.00  0.00    -0.480 OA
ATOM     11  H   UNL     1      10.918   2.613 -15.430  1.00  0.00     0.296 HD
ENDBRANCH   8  10
ENDBRANCH   7   8
BRANCH   7  12
ATOM     12  N   UNL     1       7.884   1.588 -16.568  1.00  0.00    -0.318 NA
ATOM     13  H   UNL     1       8.121   1.593 -17.565  1.00  0.00     0.119 HD
ATOM     14  H   UNL     1       8.155   2.516 -16.240  1.00  0.00     0.119 HD
ENDBRANCH   7  12
ENDBRANCH   1   7
TORSDOF 7
ENDMDL
MODEL 6
REMARK VINA RESULT:      -4.6     12.420     14.902
REMARK SMILES C=CC[S@@](=O)C[C@H](N)C(=O)O
REMARK SMILES IDX 6 1 4 2 5 3 3 4 2 5 1 6 7 7 9 8 10 9 11 10 8 12
REMARK H PARENT 11 11 8 13 8 14
ROOT
ATOM      1  C   UNL     1      -8.916   0.323 -30.981  1.00  0.00     0.136 C 
ENDROOT
BRANCH   1   2
ATOM      2  S   UNL     1      -7.610  -0.876 -30.541  1.00  0.00     0.027 S 
ATOM      3  O   UNL     1      -6.489  -0.687 -31.522  1.00  0.00    -0.259 OA
BRANCH   2   4
ATOM      4  C   UNL     1      -8.522  -2.378 -31.052  1.00  0.00     0.131 C 
BRANCH   4   5
ATOM      5  C   UNL     1      -8.111  -3.540 -30.200  1.00  0.00    -0.021 C 
ATOM      6  C   UNL     1      -8.839  -4.651 -30.021  1.00  0.00     0.005 C 
ENDBRANCH   4   5
ENDBRANCH   2   4
ENDBRANCH   1   2
BRANCH   1   7
ATOM      7  C   UNL     1      -9.099   0.443 -32.498  1.00  0.00     0.174 C 
BRANCH   7   8
ATOM      8  C   UNL     1     -10.575   0.646 -32.882  1.00  0.00     0.321 C 
ATOM      9  O   UNL     1     -11.407  -0.238 -32.998  1.00  0.00    -0.251 OA
BRANCH   8  10
ATOM     10  O   UNL     1     -10.889   1.959 -33.019  1.00  0.00    -0.480 OA
ATOM     11  H   UNL     1     -11.686   2.228 -32.522  1.00  0.00     0.296 HD
ENDBRANCH   8  10
ENDBRANCH   7   8
BRANCH   7  12
ATOM     12  N   UNL     1      -8.303   1.575 -33.031  1.00  0.00    -0.318 NA
ATOM     13  H   UNL     1      -7.763   1.248 -33.838  1.00  0.00     0.119 HD
ATOM     14  H   UNL     1      -7.595   1.877 -32.360  1.00  0.00     0.119 HD
ENDBRANCH   7  12
ENDBRANCH   1   7
TORSDOF 7
ENDMDL
MODEL 7
REMARK VINA RESULT:      -4.5     13.781     15.515
REMARK SMILES C=CC[S@@](=O)C[C@H](N)C(=O)O
REMARK SMILES IDX 6 1 4 2 5 3 3 4 2 5 1 6 7 7 9 8 10 9 11 10 8 12
REMARK H PARENT 11 11 8 13 8 14
ROOT
ATOM      1  C   UNL     1      -8.594  -0.855 -32.031  1.00  0.00     0.136 C 
ENDROOT
BRANCH   1   2
ATOM      2  S   UNL     1      -7.040  -0.018 -31.560  1.00  0.00     0.027 S 
ATOM      3  O   UNL     1      -6.125  -1.071 -31.003  1.00  0.00    -0.259 OA
BRANCH   2   4
ATOM      4  C   UNL     1      -7.722   0.908 -30.137  1.00  0.00     0.131 C 
BRANCH   4   5
ATOM      5  C   UNL     1      -7.194   2.310 -30.139  1.00  0.00    -0.021 C 
ATOM      6  C   UNL     1      -6.018   2.683 -30.662  1.00  0.00     0.005 C 
ENDBRANCH   4   5
ENDBRANCH   2   4
ENDBRANCH   1   2
BRANCH   1   7
ATOM      7  C   UNL     1      -9.232  -0.227 -33.275  1.00  0.00     0.174 C 
BRANCH   7   8
ATOM      8  C   UNL     1     -10.677   0.225 -33.011  1.00  0.00     0.321 C 
ATOM      9  O   UNL     1     -11.617  -0.511 -32.759  1.00  0.00    -0.251 OA
BRANCH   8  10
ATOM     10  O   UNL     1     -10.799   1.577 -33.019  1.00  0.00    -0.480 OA
ATOM     11  H   UNL     1     -10.241   2.019 -33.688  1.00  0.00     0.296 HD
ENDBRANCH   8  10
ENDBRANCH   7   8
BRANCH   7  12
ATOM     12  N   UNL     1      -8.439   0.940 -33.734  1.00  0.00    -0.318 NA
ATOM     13  H   UNL     1      -7.502   0.884 -33.322  1.00  0.00     0.119 HD
ATOM     14  H   UNL     1      -8.822   1.813 -33.369  1.00  0.00     0.119 HD
ENDBRANCH   7  12
ENDBRANCH   1   7
TORSDOF 7
ENDMDL
MODEL 8
REMARK VINA RESULT:      -4.4     13.219     15.357
REMARK SMILES C=CC[S@@](=O)C[C@H](N)C(=O)O
REMARK SMILES IDX 6 1 4 2 5 3 3 4 2 5 1 6 7 7 9 8 10 9 11 10 8 12
REMARK H PARENT 11 11 8 13 8 14
ROOT
ATOM      1  C   UNL     1      -8.436   1.543 -31.820  1.00  0.00     0.136 C 
ENDROOT
BRANCH   1   2
ATOM      2  S   UNL     1      -6.787   1.058 -31.199  1.00  0.00     0.027 S 
ATOM      3  O   UNL     1      -5.817   1.252 -32.329  1.00  0.00    -0.259 OA
BRANCH   2   4
ATOM      4  C   UNL     1      -7.125  -0.737 -31.084  1.00  0.00     0.131 C 
BRANCH   4   5
ATOM      5  C   UNL     1      -6.250  -1.356 -30.037  1.00  0.00    -0.021 C 
ATOM      6  C   UNL     1      -4.913  -1.279 -30.016  1.00  0.00     0.005 C 
ENDBRANCH   4   5
ENDBRANCH   2   4
ENDBRANCH   1   2
BRANCH   1   7
ATOM      7  C   UNL     1      -9.010   0.510 -32.795  1.00  0.00     0.174 C 
BRANCH   7   8
ATOM      8  C   UNL     1     -10.528   0.676 -32.975  1.00  0.00     0.321 C 
ATOM      9  O   UNL     1     -11.342  -0.231 -33.019  1.00  0.00    -0.251 OA
BRANCH   8  10
ATOM     10  O   UNL     1     -10.896   1.982 -33.015  1.00  0.00    -0.480 OA
ATOM     11  H   UNL     1     -10.696   2.474 -32.196  1.00  0.00     0.296 HD
ENDBRANCH   8  10
ENDBRANCH   7   8
BRANCH   7  12
ATOM     12  N   UNL     1      -8.353   0.622 -34.120  1.00  0.00    -0.318 NA
ATOM     13  H   UNL     1      -7.729   1.436 -34.111  1.00  0.00     0.119 HD
ATOM     14  H   UNL     1      -9.032   0.834 -34.853  1.00  0.00     0.119 HD
ENDBRANCH   7  12
ENDBRANCH   1   7
TORSDOF 7
ENDMDL
MODEL 9
REMARK VINA RESULT:      -4.4     12.420     13.519
REMARK SMILES C=CC[S@@](=O)C[C@H](N)C(=O)O
REMARK SMILES IDX 6 1 4 2 5 3 3 4 2 5 1 6 7 7 9 8 10 9 11 10 8 12
REMARK H PARENT 11 11 8 13 8 14
ROOT
ATOM      1  C   UNL     1      -5.278   0.863 -29.430  1.00  0.00     0.136 C 
ENDROOT
BRANCH   1   2
ATOM      2  S   UNL     1      -5.206   2.682 -29.267  1.00  0.00     0.027 S 
ATOM      3  O   UNL     1      -5.184   3.248 -30.657  1.00  0.00    -0.259 OA
BRANCH   2   4
ATOM      4  C   UNL     1      -3.495   2.768 -28.624  1.00  0.00     0.131 C 
BRANCH   4   5
ATOM      5  C   UNL     1      -3.114   1.456 -28.009  1.00  0.00    -0.021 C 
ATOM      6  C   UNL     1      -1.896   0.902 -28.085  1.00  0.00     0.005 C 
ENDBRANCH   4   5
ENDBRANCH   2   4
ENDBRANCH   1   2
BRANCH   1   7
ATOM      7  C   UNL     1      -5.347   0.419 -30.895  1.00  0.00     0.174 C 
BRANCH   7   8
ATOM      8  C   UNL     1      -3.948   0.174 -31.484  1.00  0.00     0.321 C 
ATOM      9  O   UNL     1      -3.290  -0.845 -31.353  1.00  0.00    -0.251 OA
BRANCH   8  10
ATOM     10  O   UNL     1      -3.526   1.214 -32.248  1.00  0.00    -0.480 OA
ATOM     11  H   UNL     1      -2.885   1.798 -31.800  1.00  0.00     0.296 HD
ENDBRANCH   8  10
ENDBRANCH   7   8
BRANCH   7  12
ATOM     12  N   UNL     1      -6.150  -0.821 -31.027  1.00  0.00    -0.318 NA
ATOM     13  H   UNL     1      -7.120  -0.565 -31.235  1.00  0.00     0.119 HD
ATOM     14  H   UNL     1      -6.207  -1.320 -30.138  1.00  0.00     0.119 HD
ENDBRANCH   7  12
ENDBRANCH   1   7
TORSDOF 7
ENDMDL
MODEL 10
REMARK VINA RESULT:      -4.3     13.209     15.369
REMARK SMILES C=CC[S@@](=O)C[C@H](N)C(=O)O
REMARK SMILES IDX 6 1 4 2 5 3 3 4 2 5 1 6 7 7 9 8 10 9 11 10 8 12
REMARK H PARENT 11 11 8 13 8 14
ROOT
ATOM      1  C   UNL     1      -8.783   0.901 -31.201  1.00  0.00     0.136 C 
ENDROOT
BRANCH   1   2
ATOM      2  S   UNL     1      -7.264   0.148 -31.884  1.00  0.00     0.027 S 
ATOM      3  O   UNL     1      -7.011  -1.113 -31.110  1.00  0.00    -0.259 OA
BRANCH   2   4
ATOM      4  C   UNL     1      -6.101   1.410 -31.251  1.00  0.00     0.131 C 
BRANCH   4   5
ATOM      5  C   UNL     1      -4.744   1.202 -31.852  1.00  0.00    -0.021 C 
ATOM      6  C   UNL     1      -3.844   0.311 -31.417  1.00  0.00     0.005 C 
ENDBRANCH   4   5
ENDBRANCH   2   4
ENDBRANCH   1   2
BRANCH   1   7
ATOM      7  C   UNL     1     -10.041   0.120 -31.597  1.00  0.00     0.174 C 
BRANCH   7   8
ATOM      8  C   UNL     1     -10.587   0.571 -32.961  1.00  0.00     0.321 C 
ATOM      9  O   UNL     1     -10.757  -0.147 -33.932  1.00  0.00    -0.251 OA
BRANCH   8  10
ATOM     10  O   UNL     1     -10.939   1.883 -32.961  1.00  0.00    -0.480 OA
ATOM     11  H   UNL     1     -10.332   2.453 -32.451  1.00  0.00     0.296 HD
ENDBRANCH   8  10
ENDBRANCH   7   8
BRANCH   7  12
ATOM     12  N   UNL     1      -9.755  -1.335 -31.650  1.00  0.00    -0.318 NA
ATOM     13  H   UNL     1      -8.749  -1.468 -31.791  1.00  0.00     0.119 HD
ATOM     14  H   UNL     1     -10.184  -1.766 -32.470  1.00  0.00     0.119 HD
ENDBRANCH   7  12
ENDBRANCH   1   7
TORSDOF 7
ENDMDL
