MODEL 1
REMARK VINA RESULT:      -6.9      0.000      0.000
REMARK SMILES O=C(O)/C=C/c1ccc(O)c(O)c1
REMARK SMILES IDX 5 1 4 2 6 3 7 4 8 5 9 6 13 7 11 8 10 9 12 11 2 13 1 14 3 15
REMARK H PARENT 10 10 12 12 3 16
ROOT
ATOM      1  C   UNL     1       6.068  -2.392 -20.592  1.00  0.00     0.016 C 
ATOM      2  C   UNL     1       5.500  -1.645 -21.553  1.00  0.00     0.094 C 
ENDROOT
BRANCH   1   3
ATOM      3  C   UNL     1       6.624  -1.849 -19.345  1.00  0.00    -0.021 A 
ATOM      4  C   UNL     1       7.813  -1.102 -19.407  1.00  0.00     0.012 A 
ATOM      5  C   UNL     1       8.376  -0.543 -18.255  1.00  0.00     0.051 A 
ATOM      6  C   UNL     1       7.738  -0.723 -17.036  1.00  0.00     0.157 A 
ATOM      7  C   UNL     1       5.986  -2.006 -18.107  1.00  0.00     0.058 A 
ATOM      8  C   UNL     1       6.552  -1.448 -16.967  1.00  0.00     0.157 A 
BRANCH   6   9
ATOM      9  O   UNL     1       8.233  -0.203 -15.873  1.00  0.00    -0.504 OA
ATOM     10  H   UNL     1       8.984   0.376 -16.095  1.00  0.00     0.293 HD
ENDBRANCH   6   9
BRANCH   8  11
ATOM     11  O   UNL     1       5.924  -1.616 -15.765  1.00  0.00    -0.504 OA
ATOM     12  H   UNL     1       4.975  -1.683 -15.992  1.00  0.00     0.293 HD
ENDBRANCH   8  11
ENDBRANCH   1   3
BRANCH   2  13
ATOM     13  C   UNL     1       4.956  -2.308 -22.755  1.00  0.00     0.328 C 
ATOM     14  O   UNL     1       4.273  -3.317 -22.741  1.00  0.00    -0.247 OA
BRANCH  13  15
ATOM     15  O   UNL     1       5.302  -1.666 -23.888  1.00  0.00    -0.478 OA
ATOM     16  H   UNL     1       4.818  -0.840 -24.067  1.00  0.00     0.297 HD
ENDBRANCH  13  15
ENDBRANCH   2  13
TORSDOF 5
ENDMDL
MODEL 2
REMARK VINA RESULT:      -6.5      0.844      2.043
REMARK SMILES O=C(O)/C=C/c1ccc(O)c(O)c1
REMARK SMILES IDX 5 1 4 2 6 3 7 4 8 5 9 6 13 7 11 8 10 9 12 11 2 13 1 14 3 15
REMARK H PARENT 10 10 12 12 3 16
ROOT
ATOM      1  C   UNL     1       6.211  -2.224 -20.324  1.00  0.00     0.016 C 
ATOM      2  C   UNL     1       5.557  -1.542 -21.279  1.00  0.00     0.094 C 
ENDROOT
BRANCH   1   3
ATOM      3  C   UNL     1       6.666  -1.637 -19.056  1.00  0.00    -0.021 A 
ATOM      4  C   UNL     1       6.159  -2.160 -17.853  1.00  0.00     0.012 A 
ATOM      5  C   UNL     1       6.574  -1.656 -16.615  1.00  0.00     0.051 A 
ATOM      6  C   UNL     1       7.510  -0.632 -16.583  1.00  0.00     0.157 A 
ATOM      7  C   UNL     1       7.623  -0.616 -19.001  1.00  0.00     0.058 A 
ATOM      8  C   UNL     1       8.029  -0.120 -17.769  1.00  0.00     0.157 A 
BRANCH   6   9
ATOM      9  O   UNL     1       7.959  -0.095 -15.408  1.00  0.00    -0.504 OA
ATOM     10  H   UNL     1       7.988  -0.805 -14.743  1.00  0.00     0.293 HD
ENDBRANCH   6   9
BRANCH   8  11
ATOM     11  O   UNL     1       8.956   0.883 -17.729  1.00  0.00    -0.504 OA
ATOM     12  H   UNL     1       9.101   1.044 -16.775  1.00  0.00     0.293 HD
ENDBRANCH   8  11
ENDBRANCH   1   3
BRANCH   2  13
ATOM     13  C   UNL     1       5.130  -2.247 -22.504  1.00  0.00     0.328 C 
ATOM     14  O   UNL     1       5.328  -1.847 -23.638  1.00  0.00    -0.247 OA
BRANCH  13  15
ATOM     15  O   UNL     1       4.488  -3.399 -22.228  1.00  0.00    -0.478 OA
ATOM     16  H   UNL     1       4.893  -3.951 -21.535  1.00  0.00     0.297 HD
ENDBRANCH  13  15
ENDBRANCH   2  13
TORSDOF 5
ENDMDL
MODEL 3
REMARK VINA RESULT:      -6.4     15.871     18.721
REMARK SMILES O=C(O)/C=C/c1ccc(O)c(O)c1
REMARK SMILES IDX 5 1 4 2 6 3 7 4 8 5 9 6 13 7 11 8 10 9 12 11 2 13 1 14 3 15
REMARK H PARENT 10 10 12 12 3 16
ROOT
ATOM      1  C   UNL     1      -8.559   1.684 -31.904  1.00  0.00     0.016 C 
ATOM      2  C   UNL     1      -8.914   0.819 -32.867  1.00  0.00     0.094 C 
ENDROOT
BRANCH   1   3
ATOM      3  C   UNL     1      -7.192   1.823 -31.382  1.00  0.00    -0.021 A 
ATOM      4  C   UNL     1      -7.016   2.327 -30.081  1.00  0.00     0.012 A 
ATOM      5  C   UNL     1      -5.740   2.460 -29.525  1.00  0.00     0.051 A 
ATOM      6  C   UNL     1      -4.635   2.073 -30.270  1.00  0.00     0.157 A 
ATOM      7  C   UNL     1      -6.065   1.422 -32.112  1.00  0.00     0.058 A 
ATOM      8  C   UNL     1      -4.800   1.557 -31.552  1.00  0.00     0.157 A 
BRANCH   6   9
ATOM      9  O   UNL     1      -3.360   2.175 -29.785  1.00  0.00    -0.504 OA
ATOM     10  H   UNL     1      -2.914   2.900 -30.258  1.00  0.00     0.293 HD
ENDBRANCH   6   9
BRANCH   8  11
ATOM     11  O   UNL     1      -3.709   1.172 -32.277  1.00  0.00    -0.504 OA
ATOM     12  H   UNL     1      -3.366   0.387 -31.804  1.00  0.00     0.293 HD
ENDBRANCH   8  11
ENDBRANCH   1   3
BRANCH   2  13
ATOM     13  C   UNL     1     -10.318   0.787 -33.326  1.00  0.00     0.328 C 
ATOM     14  O   UNL     1     -10.840  -0.156 -33.895  1.00  0.00    -0.247 OA
BRANCH  13  15
ATOM     15  O   UNL     1     -10.970   1.931 -33.041  1.00  0.00    -0.478 OA
ATOM     16  H   UNL     1     -11.484   2.316 -33.774  1.00  0.00     0.297 HD
ENDBRANCH  13  15
ENDBRANCH   2  13
TORSDOF 5
ENDMDL
MODEL 4
REMARK VINA RESULT:      -6.2     16.006     19.707
REMARK SMILES O=C(O)/C=C/c1ccc(O)c(O)c1
REMARK SMILES IDX 5 1 4 2 6 3 7 4 8 5 9 6 13 7 11 8 10 9 12 11 2 13 1 14 3 15
REMARK H PARENT 10 10 12 12 3 16
ROOT
ATOM      1  C   UNL     1      -6.295   1.036 -31.818  1.00  0.00     0.016 C 
ATOM      2  C   UNL     1      -5.413   0.228 -31.208  1.00  0.00     0.094 C 
ENDROOT
BRANCH   1   3
ATOM      3  C   UNL     1      -7.685   0.666 -32.117  1.00  0.00    -0.021 A 
ATOM      4  C   UNL     1      -8.066  -0.682 -31.988  1.00  0.00     0.012 A 
ATOM      5  C   UNL     1      -9.381  -1.088 -32.238  1.00  0.00     0.051 A 
ATOM      6  C   UNL     1     -10.322  -0.138 -32.607  1.00  0.00     0.157 A 
ATOM      7  C   UNL     1      -8.655   1.612 -32.474  1.00  0.00     0.058 A 
ATOM      8  C   UNL     1      -9.958   1.201 -32.721  1.00  0.00     0.157 A 
BRANCH   6   9
ATOM      9  O   UNL     1     -11.624  -0.467 -32.864  1.00  0.00    -0.504 OA
ATOM     10  H   UNL     1     -12.195   0.168 -32.397  1.00  0.00     0.293 HD
ENDBRANCH   6   9
BRANCH   8  11
ATOM     11  O   UNL     1     -10.892   2.132 -33.077  1.00  0.00    -0.504 OA
ATOM     12  H   UNL     1     -11.598   2.040 -32.406  1.00  0.00     0.293 HD
ENDBRANCH   8  11
ENDBRANCH   1   3
BRANCH   2  13
ATOM     13  C   UNL     1      -4.047   0.721 -30.942  1.00  0.00     0.328 C 
ATOM     14  O   UNL     1      -3.695   1.264 -29.910  1.00  0.00    -0.247 OA
BRANCH  13  15
ATOM     15  O   UNL     1      -3.218   0.500 -31.980  1.00  0.00    -0.478 OA
ATOM     16  H   UNL     1      -3.098  -0.433 -32.233  1.00  0.00     0.297 HD
ENDBRANCH  13  15
ENDBRANCH   2  13
TORSDOF 5
ENDMDL
MODEL 5
REMARK VINA RESULT:      -6.2      2.028      2.952
REMARK SMILES O=C(O)/C=C/c1ccc(O)c(O)c1
REMARK SMILES IDX 5 1 4 2 6 3 7 4 8 5 9 6 13 7 11 8 10 9 12 11 2 13 1 14 3 15
REMARK H PARENT 10 10 12 12 3 16
ROOT
ATOM      1  C   UNL     1       7.742  -1.263 -19.100  1.00  0.00     0.016 C 
ATOM      2  C   UNL     1       6.480  -1.540 -19.463  1.00  0.00     0.094 C 
ENDROOT
BRANCH   1   3
ATOM      3  C   UNL     1       8.107  -0.449 -17.932  1.00  0.00    -0.021 A 
ATOM      4  C   UNL     1       9.186  -0.865 -17.132  1.00  0.00     0.012 A 
ATOM      5  C   UNL     1       9.591  -0.118 -16.021  1.00  0.00     0.051 A 
ATOM      6  C   UNL     1       8.919   1.057 -15.717  1.00  0.00     0.157 A 
ATOM      7  C   UNL     1       7.453   0.750 -17.618  1.00  0.00     0.058 A 
ATOM      8  C   UNL     1       7.860   1.485 -16.512  1.00  0.00     0.157 A 
BRANCH   6   9
ATOM      9  O   UNL     1       9.265   1.835 -14.646  1.00  0.00    -0.504 OA
ATOM     10  H   UNL     1       8.697   1.587 -13.896  1.00  0.00     0.293 HD
ENDBRANCH   6   9
BRANCH   8  11
ATOM     11  O   UNL     1       7.209   2.648 -16.212  1.00  0.00    -0.504 OA
ATOM     12  H   UNL     1       6.574   2.769 -16.946  1.00  0.00     0.293 HD
ENDBRANCH   8  11
ENDBRANCH   1   3
BRANCH   2  13
ATOM     13  C   UNL     1       6.239  -2.389 -20.647  1.00  0.00     0.328 C 
ATOM     14  O   UNL     1       5.616  -2.040 -21.634  1.00  0.00    -0.247 OA
BRANCH  13  15
ATOM     15  O   UNL     1       6.791  -3.610 -20.515  1.00  0.00    -0.478 OA
ATOM     16  H   UNL     1       7.397  -3.878 -21.230  1.00  0.00     0.297 HD
ENDBRANCH  13  15
ENDBRANCH   2  13
TORSDOF 5
ENDMDL
MODEL 6
REMARK VINA RESULT:      -6.2     15.757     18.550
REMARK SMILES O=C(O)/C=C/c1ccc(O)c(O)c1
REMARK SMILES IDX 5 1 4 2 6 3 7 4 8 5 9 6 13 7 11 8 10 9 12 11 2 13 1 14 3 15
REMARK H PARENT 10 10 12 12 3 16
ROOT
ATOM      1  C   UNL     1      -8.576   1.307 -31.631  1.00  0.00     0.016 C 
ATOM      2  C   UNL     1      -9.089   0.693 -32.708  1.00  0.00     0.094 C 
ENDROOT
BRANCH   1   3
ATOM      3  C   UNL     1      -7.153   1.282 -31.265  1.00  0.00    -0.021 A 
ATOM      4  C   UNL     1      -6.563   2.460 -30.774  1.00  0.00     0.012 A 
ATOM      5  C   UNL     1      -5.218   2.488 -30.389  1.00  0.00     0.051 A 
ATOM      6  C   UNL     1      -4.464   1.328 -30.486  1.00  0.00     0.157 A 
ATOM      7  C   UNL     1      -6.379   0.116 -31.339  1.00  0.00     0.058 A 
ATOM      8  C   UNL     1      -5.044   0.153 -30.956  1.00  0.00     0.157 A 
BRANCH   6   9
ATOM      9  O   UNL     1      -3.146   1.286 -30.126  1.00  0.00    -0.504 OA
ATOM     10  H   UNL     1      -3.099   1.214 -29.157  1.00  0.00     0.293 HD
ENDBRANCH   6   9
BRANCH   8  11
ATOM     11  O   UNL     1      -4.298  -0.988 -31.041  1.00  0.00    -0.504 OA
ATOM     12  H   UNL     1      -3.397  -0.676 -31.261  1.00  0.00     0.293 HD
ENDBRANCH   8  11
ENDBRANCH   1   3
BRANCH   2  13
ATOM     13  C   UNL     1     -10.536   0.808 -32.985  1.00  0.00     0.328 C 
ATOM     14  O   UNL     1     -11.295  -0.136 -33.111  1.00  0.00    -0.247 OA
BRANCH  13  15
ATOM     15  O   UNL     1     -10.931   2.092 -33.083  1.00  0.00    -0.478 OA
ATOM     16  H   UNL     1     -11.422   2.321 -33.892  1.00  0.00     0.297 HD
ENDBRANCH  13  15
ENDBRANCH   2  13
TORSDOF 5
ENDMDL
MODEL 7
REMARK VINA RESULT:      -6.1     15.854     18.535
REMARK SMILES O=C(O)/C=C/c1ccc(O)c(O)c1
REMARK SMILES IDX 5 1 4 2 6 3 7 4 8 5 9 6 13 7 11 8 10 9 12 11 2 13 1 14 3 15
REMARK H PARENT 10 10 12 12 3 16
ROOT
ATOM      1  C   UNL     1      -8.604   1.697 -31.803  1.00  0.00     0.016 C 
ATOM      2  C   UNL     1      -8.939   0.826 -32.768  1.00  0.00     0.094 C 
ENDROOT
BRANCH   1   3
ATOM      3  C   UNL     1      -7.257   1.814 -31.227  1.00  0.00    -0.021 A 
ATOM      4  C   UNL     1      -6.157   1.400 -31.999  1.00  0.00     0.012 A 
ATOM      5  C   UNL     1      -4.851   1.509 -31.510  1.00  0.00     0.051 A 
ATOM      6  C   UNL     1      -4.645   2.047 -30.248  1.00  0.00     0.157 A 
ATOM      7  C   UNL     1      -7.027   2.371 -29.962  1.00  0.00     0.058 A 
ATOM      8  C   UNL     1      -5.727   2.475 -29.484  1.00  0.00     0.157 A 
BRANCH   6   9
ATOM      9  O   UNL     1      -3.394   2.183 -29.712  1.00  0.00    -0.504 OA
ATOM     10  H   UNL     1      -3.126   1.321 -29.346  1.00  0.00     0.293 HD
ENDBRANCH   6   9
BRANCH   8  11
ATOM     11  O   UNL     1      -5.516   3.011 -28.245  1.00  0.00    -0.504 OA
ATOM     12  H   UNL     1      -4.710   3.556 -28.348  1.00  0.00     0.293 HD
ENDBRANCH   8  11
ENDBRANCH   1   3
BRANCH   2  13
ATOM     13  C   UNL     1     -10.323   0.816 -33.283  1.00  0.00     0.328 C 
ATOM     14  O   UNL     1     -10.843  -0.125 -33.856  1.00  0.00    -0.247 OA
BRANCH  13  15
ATOM     15  O   UNL     1     -10.959   1.980 -33.046  1.00  0.00    -0.478 OA
ATOM     16  H   UNL     1     -10.761   2.402 -32.191  1.00  0.00     0.297 HD
ENDBRANCH  13  15
ENDBRANCH   2  13
TORSDOF 5
ENDMDL
MODEL 8
REMARK VINA RESULT:      -5.9     15.481     19.074
REMARK SMILES O=C(O)/C=C/c1ccc(O)c(O)c1
REMARK SMILES IDX 5 1 4 2 6 3 7 4 8 5 9 6 13 7 11 8 10 9 12 11 2 13 1 14 3 15
REMARK H PARENT 10 10 12 12 3 16
ROOT
ATOM      1  C   UNL     1      -6.054  -0.231 -31.223  1.00  0.00     0.016 C 
ATOM      2  C   UNL     1      -4.884   0.427 -31.221  1.00  0.00     0.094 C 
ENDROOT
BRANCH   1   3
ATOM      3  C   UNL     1      -7.330   0.355 -31.658  1.00  0.00    -0.021 A 
ATOM      4  C   UNL     1      -7.328   1.228 -32.761  1.00  0.00     0.012 A 
ATOM      5  C   UNL     1      -8.516   1.798 -33.232  1.00  0.00     0.051 A 
ATOM      6  C   UNL     1      -9.712   1.482 -32.604  1.00  0.00     0.157 A 
ATOM      7  C   UNL     1      -8.550   0.035 -31.049  1.00  0.00     0.058 A 
ATOM      8  C   UNL     1      -9.725   0.606 -31.523  1.00  0.00     0.157 A 
BRANCH   6   9
ATOM      9  O   UNL     1     -10.907   2.002 -33.016  1.00  0.00    -0.504 OA
ATOM     10  H   UNL     1     -11.538   1.268 -33.117  1.00  0.00     0.293 HD
ENDBRANCH   6   9
BRANCH   8  11
ATOM     11  O   UNL     1     -10.907   0.293 -30.914  1.00  0.00    -0.504 OA
ATOM     12  H   UNL     1     -11.134   1.090 -30.395  1.00  0.00     0.293 HD
ENDBRANCH   8  11
ENDBRANCH   1   3
BRANCH   2  13
ATOM     13  C   UNL     1      -3.662  -0.277 -30.780  1.00  0.00     0.328 C 
ATOM     14  O   UNL     1      -3.527  -1.487 -30.765  1.00  0.00    -0.247 OA
BRANCH  13  15
ATOM     15  O   UNL     1      -2.697   0.580 -30.391  1.00  0.00    -0.478 OA
ATOM     16  H   UNL     1      -3.006   1.378 -29.925  1.00  0.00     0.297 HD
ENDBRANCH  13  15
ENDBRANCH   2  13
TORSDOF 5
ENDMDL
MODEL 9
REMARK VINA RESULT:      -5.9      1.290      2.150
REMARK SMILES O=C(O)/C=C/c1ccc(O)c(O)c1
REMARK SMILES IDX 5 1 4 2 6 3 7 4 8 5 9 6 13 7 11 8 10 9 12 11 2 13 1 14 3 15
REMARK H PARENT 10 10 12 12 3 16
ROOT
ATOM      1  C   UNL     1       5.967  -1.981 -21.881  1.00  0.00     0.016 C 
ATOM      2  C   UNL     1       4.789  -1.899 -22.518  1.00  0.00     0.094 C 
ENDROOT
BRANCH   1   3
ATOM      3  C   UNL     1       6.113  -2.058 -20.420  1.00  0.00    -0.021 A 
ATOM      4  C   UNL     1       5.825  -3.276 -19.779  1.00  0.00     0.012 A 
ATOM      5  C   UNL     1       5.968  -3.414 -18.394  1.00  0.00     0.051 A 
ATOM      6  C   UNL     1       6.411  -2.330 -17.650  1.00  0.00     0.157 A 
ATOM      7  C   UNL     1       6.576  -0.981 -19.654  1.00  0.00     0.058 A 
ATOM      8  C   UNL     1       6.714  -1.125 -18.279  1.00  0.00     0.157 A 
BRANCH   6   9
ATOM      9  O   UNL     1       6.573  -2.397 -16.294  1.00  0.00    -0.504 OA
ATOM     10  H   UNL     1       5.715  -2.628 -15.898  1.00  0.00     0.293 HD
ENDBRANCH   6   9
BRANCH   8  11
ATOM     11  O   UNL     1       7.158  -0.065 -17.542  1.00  0.00    -0.504 OA
ATOM     12  H   UNL     1       7.591  -0.471 -16.764  1.00  0.00     0.293 HD
ENDBRANCH   8  11
ENDBRANCH   1   3
BRANCH   2  13
ATOM     13  C   UNL     1       4.769  -1.849 -23.994  1.00  0.00     0.328 C 
ATOM     14  O   UNL     1       4.092  -2.573 -24.703  1.00  0.00    -0.247 OA
BRANCH  13  15
ATOM     15  O   UNL     1       5.592  -0.900 -24.480  1.00  0.00    -0.478 OA
ATOM     16  H   UNL     1       6.233  -1.201 -25.149  1.00  0.00     0.297 HD
ENDBRANCH  13  15
ENDBRANCH   2  13
TORSDOF 5
ENDMDL
MODEL 10
REMARK VINA RESULT:      -5.9     13.063     14.293
REMARK SMILES O=C(O)/C=C/c1ccc(O)c(O)c1
REMARK SMILES IDX 5 1 4 2 6 3 7 4 8 5 9 6 13 7 11 8 10 9 12 11 2 13 1 14 3 15
REMARK H PARENT 10 10 12 12 3 16
ROOT
ATOM      1  C   UNL     1      -5.174  -1.253 -26.089  1.00  0.00     0.016 C 
ATOM      2  C   UNL     1      -5.873  -0.364 -25.366  1.00  0.00     0.094 C 
ENDROOT
BRANCH   1   3
ATOM      3  C   UNL     1      -4.302  -0.896 -27.217  1.00  0.00    -0.021 A 
ATOM      4  C   UNL     1      -3.428   0.196 -27.072  1.00  0.00     0.012 A 
ATOM      5  C   UNL     1      -2.560   0.568 -28.104  1.00  0.00     0.051 A 
ATOM      6  C   UNL     1      -2.558  -0.166 -29.282  1.00  0.00     0.157 A 
ATOM      7  C   UNL     1      -4.273  -1.634 -28.407  1.00  0.00     0.058 A 
ATOM      8  C   UNL     1      -3.408  -1.258 -29.428  1.00  0.00     0.157 A 
BRANCH   6   9
ATOM      9  O   UNL     1      -1.734   0.143 -30.329  1.00  0.00    -0.504 OA
ATOM     10  H   UNL     1      -1.802   1.100 -30.496  1.00  0.00     0.293 HD
ENDBRANCH   6   9
BRANCH   8  11
ATOM     11  O   UNL     1      -3.396  -1.981 -30.587  1.00  0.00    -0.504 OA
ATOM     12  H   UNL     1      -3.489  -2.910 -30.297  1.00  0.00     0.293 HD
ENDBRANCH   8  11
ENDBRANCH   1   3
BRANCH   2  13
ATOM     13  C   UNL     1      -6.701  -0.842 -24.239  1.00  0.00     0.328 C 
ATOM     14  O   UNL     1      -7.558  -0.182 -23.680  1.00  0.00    -0.247 OA
BRANCH  13  15
ATOM     15  O   UNL     1      -6.399  -2.109 -23.892  1.00  0.00    -0.478 OA
ATOM     16  H   UNL     1      -6.221  -2.254 -22.945  1.00  0.00     0.297 HD
ENDBRANCH  13  15
ENDBRANCH   2  13
TORSDOF 5
ENDMDL
