MODEL 1
REMARK VINA RESULT:      -5.3      0.000      0.000
REMARK SMILES C=CCSC[C@H](N)C(=O)O
REMARK SMILES IDX 5 1 4 2 3 3 2 4 1 5 6 6 8 7 9 8 10 9 7 11
REMARK H PARENT 10 10 7 12 7 13
ROOT
ATOM      1  C   UNL     1       0.409 -10.602 -26.641  1.00  0.00     0.100 C 
ENDROOT
BRANCH   1   2
ATOM      2  S   UNL     1      -0.842  -9.269 -26.703  1.00  0.00    -0.156 SA
BRANCH   2   3
ATOM      3  C   UNL     1      -1.990 -10.037 -27.886  1.00  0.00     0.096 C 
BRANCH   3   4
ATOM      4  C   UNL     1      -3.228  -9.199 -27.971  1.00  0.00    -0.024 C 
ATOM      5  C   UNL     1      -4.395  -9.511 -27.392  1.00  0.00     0.005 C 
ENDBRANCH   3   4
ENDBRANCH   2   3
ENDBRANCH   1   2
BRANCH   1   6
ATOM      6  C   UNL     1       0.538 -11.184 -25.226  1.00  0.00     0.172 C 
BRANCH   6   7
ATOM      7  C   UNL     1       0.829 -12.686 -25.320  1.00  0.00     0.321 C 
ATOM      8  O   UNL     1       1.286 -13.260 -26.296  1.00  0.00    -0.251 OA
BRANCH   7   9
ATOM      9  O   UNL     1       0.494 -13.322 -24.166  1.00  0.00    -0.480 OA
ATOM     10  H   UNL     1       0.156 -14.214 -24.438  1.00  0.00     0.296 HD
ENDBRANCH   7   9
ENDBRANCH   6   7
BRANCH   6  11
ATOM     11  N   UNL     1       1.625 -10.547 -24.408  1.00  0.00    -0.318 NA
ATOM     12  H   UNL     1       2.501 -10.987 -24.721  1.00  0.00     0.119 HD
ATOM     13  H   UNL     1       1.539 -10.899 -23.448  1.00  0.00     0.119 HD
ENDBRANCH   6  11
ENDBRANCH   1   6
TORSDOF 7
ENDMDL
MODEL 2
REMARK VINA RESULT:      -5.2      1.700      1.920
REMARK SMILES C=CCSC[C@H](N)C(=O)O
REMARK SMILES IDX 5 1 4 2 3 3 2 4 1 5 6 6 8 7 9 8 10 9 7 11
REMARK H PARENT 10 10 7 12 7 13
ROOT
ATOM      1  C   UNL     1      -1.491 -10.009 -26.220  1.00  0.00     0.100 C 
ENDROOT
BRANCH   1   2
ATOM      2  S   UNL     1      -2.024 -10.438 -27.917  1.00  0.00    -0.156 SA
BRANCH   2   3
ATOM      3  C   UNL     1      -3.102  -9.006 -28.226  1.00  0.00     0.096 C 
BRANCH   3   4
ATOM      4  C   UNL     1      -4.044  -8.852 -27.073  1.00  0.00    -0.024 C 
ATOM      5  C   UNL     1      -5.173  -9.558 -26.917  1.00  0.00     0.005 C 
ENDBRANCH   3   4
ENDBRANCH   2   3
ENDBRANCH   1   2
BRANCH   1   6
ATOM      6  C   UNL     1       0.036  -9.879 -26.128  1.00  0.00     0.172 C 
BRANCH   6   7
ATOM      7  C   UNL     1       0.631 -11.214 -25.664  1.00  0.00     0.321 C 
ATOM      8  O   UNL     1       0.502 -12.285 -26.237  1.00  0.00    -0.251 OA
BRANCH   7   9
ATOM      9  O   UNL     1       1.321 -11.063 -24.503  1.00  0.00    -0.480 OA
ATOM     10  H   UNL     1       0.931 -10.266 -24.059  1.00  0.00     0.296 HD
ENDBRANCH   7   9
ENDBRANCH   6   7
BRANCH   6  11
ATOM     11  N   UNL     1       0.689  -9.502 -27.427  1.00  0.00    -0.318 NA
ATOM     12  H   UNL     1       1.042  -8.545 -27.293  1.00  0.00     0.119 HD
ATOM     13  H   UNL     1      -0.055  -9.362 -28.121  1.00  0.00     0.119 HD
ENDBRANCH   6  11
ENDBRANCH   1   6
TORSDOF 7
ENDMDL
MODEL 3
REMARK VINA RESULT:      -5.0      2.016      2.301
REMARK SMILES C=CCSC[C@H](N)C(=O)O
REMARK SMILES IDX 5 1 4 2 3 3 2 4 1 5 6 6 8 7 9 8 10 9 7 11
REMARK H PARENT 10 10 7 12 7 13
ROOT
ATOM      1  C   UNL     1      -1.462  -9.935 -26.372  1.00  0.00     0.100 C 
ENDROOT
BRANCH   1   2
ATOM      2  S   UNL     1      -2.370  -8.889 -27.566  1.00  0.00    -0.156 SA
BRANCH   2   3
ATOM      3  C   UNL     1      -3.795  -9.982 -27.847  1.00  0.00     0.096 C 
BRANCH   3   4
ATOM      4  C   UNL     1      -4.927  -9.535 -26.976  1.00  0.00    -0.024 C 
ATOM      5  C   UNL     1      -5.673 -10.355 -26.223  1.00  0.00     0.005 C 
ENDBRANCH   3   4
ENDBRANCH   2   3
ENDBRANCH   1   2
BRANCH   1   6
ATOM      6  C   UNL     1      -0.307 -10.687 -27.049  1.00  0.00     0.172 C 
BRANCH   6   7
ATOM      7  C   UNL     1       0.434 -11.527 -26.002  1.00  0.00     0.321 C 
ATOM      8  O   UNL     1       0.718 -12.709 -26.113  1.00  0.00    -0.251 OA
BRANCH   7   9
ATOM      9  O   UNL     1       0.730 -10.786 -24.902  1.00  0.00    -0.480 OA
ATOM     10  H   UNL     1       0.984 -11.438 -24.198  1.00  0.00     0.296 HD
ENDBRANCH   7   9
ENDBRANCH   6   7
BRANCH   6  11
ATOM     11  N   UNL     1      -0.749 -11.602 -28.155  1.00  0.00    -0.318 NA
ATOM     12  H   UNL     1      -1.535 -12.144 -27.770  1.00  0.00     0.119 HD
ATOM     13  H   UNL     1      -0.026 -12.322 -28.270  1.00  0.00     0.119 HD
ENDBRANCH   6  11
ENDBRANCH   1   6
TORSDOF 7
ENDMDL
MODEL 4
REMARK VINA RESULT:      -4.8      3.808      5.314
REMARK SMILES C=CCSC[C@H](N)C(=O)O
REMARK SMILES IDX 5 1 4 2 3 3 2 4 1 5 6 6 8 7 9 8 10 9 7 11
REMARK H PARENT 10 10 7 12 7 13
ROOT
ATOM      1  C   UNL     1      -2.028 -10.548 -27.121  1.00  0.00     0.100 C 
ENDROOT
BRANCH   1   2
ATOM      2  S   UNL     1      -0.998  -9.095 -26.701  1.00  0.00    -0.156 SA
BRANCH   2   3
ATOM      3  C   UNL     1       0.601  -9.943 -26.533  1.00  0.00     0.096 C 
BRANCH   3   4
ATOM      4  C   UNL     1       0.531 -10.884 -25.371  1.00  0.00    -0.024 C 
ATOM      5  C   UNL     1       0.813 -12.192 -25.437  1.00  0.00     0.005 C 
ENDBRANCH   3   4
ENDBRANCH   2   3
ENDBRANCH   1   2
BRANCH   1   6
ATOM      6  C   UNL     1      -3.235 -10.149 -27.981  1.00  0.00     0.172 C 
BRANCH   6   7
ATOM      7  C   UNL     1      -4.483 -10.060 -27.093  1.00  0.00     0.321 C 
ATOM      8  O   UNL     1      -5.220 -10.992 -26.811  1.00  0.00    -0.251 OA
BRANCH   7   9
ATOM      9  O   UNL     1      -4.687  -8.787 -26.662  1.00  0.00    -0.480 OA
ATOM     10  H   UNL     1      -4.604  -8.821 -25.674  1.00  0.00     0.296 HD
ENDBRANCH   7   9
ENDBRANCH   6   7
BRANCH   6  11
ATOM     11  N   UNL     1      -3.068  -8.833 -28.683  1.00  0.00    -0.318 NA
ATOM     12  H   UNL     1      -3.454  -8.125 -28.043  1.00  0.00     0.119 HD
ATOM     13  H   UNL     1      -3.738  -8.807 -29.461  1.00  0.00     0.119 HD
ENDBRANCH   6  11
ENDBRANCH   1   6
TORSDOF 7
ENDMDL
MODEL 5
REMARK VINA RESULT:      -4.8     11.080     12.100
REMARK SMILES C=CCSC[C@H](N)C(=O)O
REMARK SMILES IDX 5 1 4 2 3 3 2 4 1 5 6 6 8 7 9 8 10 9 7 11
REMARK H PARENT 10 10 7 12 7 13
ROOT
ATOM      1  C   UNL     1       5.012  -1.357 -23.955  1.00  0.00     0.100 C 
ENDROOT
BRANCH   1   2
ATOM      2  S   UNL     1       4.099  -2.537 -22.896  1.00  0.00    -0.156 SA
BRANCH   2   3
ATOM      3  C   UNL     1       5.451  -2.978 -21.764  1.00  0.00     0.096 C 
BRANCH   3   4
ATOM      4  C   UNL     1       5.963  -1.731 -21.113  1.00  0.00    -0.024 C 
ATOM      5  C   UNL     1       6.519  -1.686 -19.894  1.00  0.00     0.005 C 
ENDBRANCH   3   4
ENDBRANCH   2   3
ENDBRANCH   1   2
BRANCH   1   6
ATOM      6  C   UNL     1       4.068  -0.617 -24.913  1.00  0.00     0.172 C 
BRANCH   6   7
ATOM      7  C   UNL     1       4.466  -0.929 -26.360  1.00  0.00     0.321 C 
ATOM      8  O   UNL     1       5.157  -0.220 -27.075  1.00  0.00    -0.251 OA
BRANCH   7   9
ATOM      9  O   UNL     1       3.931  -2.110 -26.770  1.00  0.00    -0.480 OA
ATOM     10  H   UNL     1       3.004  -2.123 -26.416  1.00  0.00     0.296 HD
ENDBRANCH   7   9
ENDBRANCH   6   7
BRANCH   6  11
ATOM     11  N   UNL     1       2.622  -0.981 -24.737  1.00  0.00    -0.318 NA
ATOM     12  H   UNL     1       2.282  -1.229 -25.677  1.00  0.00     0.119 HD
ATOM     13  H   UNL     1       2.104  -0.117 -24.542  1.00  0.00     0.119 HD
ENDBRANCH   6  11
ENDBRANCH   1   6
TORSDOF 7
ENDMDL
MODEL 6
REMARK VINA RESULT:      -4.8     14.806     15.622
REMARK SMILES C=CCSC[C@H](N)C(=O)O
REMARK SMILES IDX 5 1 4 2 3 3 2 4 1 5 6 6 8 7 9 8 10 9 7 11
REMARK H PARENT 10 10 7 12 7 13
ROOT
ATOM      1  C   UNL     1       7.625  -0.351 -18.116  1.00  0.00     0.100 C 
ENDROOT
BRANCH   1   2
ATOM      2  S   UNL     1       6.385  -1.657 -18.435  1.00  0.00    -0.156 SA
BRANCH   2   3
ATOM      3  C   UNL     1       7.102  -2.337 -19.961  1.00  0.00     0.096 C 
BRANCH   3   4
ATOM      4  C   UNL     1       5.996  -2.849 -20.830  1.00  0.00    -0.024 C 
ATOM      5  C   UNL     1       5.473  -2.177 -21.865  1.00  0.00     0.005 C 
ENDBRANCH   3   4
ENDBRANCH   2   3
ENDBRANCH   1   2
BRANCH   1   6
ATOM      6  C   UNL     1       7.420   0.292 -16.737  1.00  0.00     0.172 C 
BRANCH   6   7
ATOM      7  C   UNL     1       8.519  -0.194 -15.783  1.00  0.00     0.321 C 
ATOM      8  O   UNL     1       9.090  -1.271 -15.849  1.00  0.00    -0.251 OA
BRANCH   7   9
ATOM      9  O   UNL     1       8.774   0.733 -14.821  1.00  0.00    -0.480 OA
ATOM     10  H   UNL     1       8.016   0.676 -14.184  1.00  0.00     0.296 HD
ENDBRANCH   7   9
ENDBRANCH   6   7
BRANCH   6  11
ATOM     11  N   UNL     1       7.451   1.793 -16.759  1.00  0.00    -0.318 NA
ATOM     12  H   UNL     1       8.160   2.046 -17.460  1.00  0.00     0.119 HD
ATOM     13  H   UNL     1       7.889   2.108 -15.886  1.00  0.00     0.119 HD
ENDBRANCH   6  11
ENDBRANCH   1   6
TORSDOF 7
ENDMDL
MODEL 7
REMARK VINA RESULT:      -4.5      3.347      5.088
REMARK SMILES C=CCSC[C@H](N)C(=O)O
REMARK SMILES IDX 5 1 4 2 3 3 2 4 1 5 6 6 8 7 9 8 10 9 7 11
REMARK H PARENT 10 10 7 12 7 13
ROOT
ATOM      1  C   UNL     1       0.210 -10.045 -26.781  1.00  0.00     0.100 C 
ENDROOT
BRANCH   1   2
ATOM      2  S   UNL     1       0.716 -10.744 -25.168  1.00  0.00    -0.156 SA
BRANCH   2   3
ATOM      3  C   UNL     1       0.717 -12.503 -25.629  1.00  0.00     0.096 C 
BRANCH   3   4
ATOM      4  C   UNL     1       1.166 -13.311 -24.452  1.00  0.00    -0.024 C 
ATOM      5  C   UNL     1       0.343 -13.993 -23.642  1.00  0.00     0.005 C 
ENDBRANCH   3   4
ENDBRANCH   2   3
ENDBRANCH   1   2
BRANCH   1   6
ATOM      6  C   UNL     1      -1.171 -10.561 -27.207  1.00  0.00     0.172 C 
BRANCH   6   7
ATOM      7  C   UNL     1      -2.111  -9.370 -27.430  1.00  0.00     0.321 C 
ATOM      8  O   UNL     1      -2.640  -9.072 -28.490  1.00  0.00    -0.251 OA
BRANCH   7   9
ATOM      9  O   UNL     1      -2.275  -8.656 -26.285  1.00  0.00    -0.480 OA
ATOM     10  H   UNL     1      -3.248  -8.479 -26.214  1.00  0.00     0.296 HD
ENDBRANCH   7   9
ENDBRANCH   6   7
BRANCH   6  11
ATOM     11  N   UNL     1      -1.148 -11.379 -28.466  1.00  0.00    -0.318 NA
ATOM     12  H   UNL     1      -1.742 -10.873 -29.137  1.00  0.00     0.119 HD
ATOM     13  H   UNL     1      -1.696 -12.231 -28.294  1.00  0.00     0.119 HD
ENDBRANCH   6  11
ENDBRANCH   1   6
TORSDOF 7
ENDMDL
MODEL 8
REMARK VINA RESULT:      -4.4      2.601      3.345
REMARK SMILES C=CCSC[C@H](N)C(=O)O
REMARK SMILES IDX 5 1 4 2 3 3 2 4 1 5 6 6 8 7 9 8 10 9 7 11
REMARK H PARENT 10 10 7 12 7 13
ROOT
ATOM      1  C   UNL     1      -2.264 -10.203 -26.658  1.00  0.00     0.100 C 
ENDROOT
BRANCH   1   2
ATOM      2  S   UNL     1      -3.238  -8.857 -27.424  1.00  0.00    -0.156 SA
BRANCH   2   3
ATOM      3  C   UNL     1      -4.759  -9.792 -27.768  1.00  0.00     0.096 C 
BRANCH   3   4
ATOM      4  C   UNL     1      -5.535  -9.938 -26.496  1.00  0.00    -0.024 C 
ATOM      5  C   UNL     1      -5.832 -11.111 -25.921  1.00  0.00     0.005 C 
ENDBRANCH   3   4
ENDBRANCH   2   3
ENDBRANCH   1   2
BRANCH   1   6
ATOM      6  C   UNL     1      -1.003 -10.517 -27.475  1.00  0.00     0.172 C 
BRANCH   6   7
ATOM      7  C   UNL     1       0.225  -9.957 -26.747  1.00  0.00     0.321 C 
ATOM      8  O   UNL     1       0.702 -10.403 -25.715  1.00  0.00    -0.251 OA
BRANCH   7   9
ATOM      9  O   UNL     1       0.721  -8.868 -27.391  1.00  0.00    -0.480 OA
ATOM     10  H   UNL     1       1.381  -8.464 -26.770  1.00  0.00     0.296 HD
ENDBRANCH   7   9
ENDBRANCH   6   7
BRANCH   6  11
ATOM     11  N   UNL     1      -0.781 -11.984 -27.704  1.00  0.00    -0.318 NA
ATOM     12  H   UNL     1      -0.038 -12.259 -27.047  1.00  0.00     0.119 HD
ATOM     13  H   UNL     1      -0.316 -12.090 -28.613  1.00  0.00     0.119 HD
ENDBRANCH   6  11
ENDBRANCH   1   6
TORSDOF 7
ENDMDL
MODEL 9
REMARK VINA RESULT:      -4.4     15.270     16.084
REMARK SMILES C=CCSC[C@H](N)C(=O)O
REMARK SMILES IDX 5 1 4 2 3 3 2 4 1 5 6 6 8 7 9 8 10 9 7 11
REMARK H PARENT 10 10 7 12 7 13
ROOT
ATOM      1  C   UNL     1      -8.789  -0.796 -32.059  1.00  0.00     0.100 C 
ENDROOT
BRANCH   1   2
ATOM      2  S   UNL     1      -7.174  -0.516 -31.247  1.00  0.00    -0.156 SA
BRANCH   2   3
ATOM      3  C   UNL     1      -6.651   0.946 -32.193  1.00  0.00     0.096 C 
BRANCH   3   4
ATOM      4  C   UNL     1      -6.471   2.093 -31.248  1.00  0.00    -0.024 C 
ATOM      5  C   UNL     1      -7.144   2.242 -30.099  1.00  0.00     0.005 C 
ENDBRANCH   3   4
ENDBRANCH   2   3
ENDBRANCH   1   2
BRANCH   1   6
ATOM      6  C   UNL     1      -9.761   0.361 -31.788  1.00  0.00     0.172 C 
BRANCH   6   7
ATOM      7  C   UNL     1     -10.559   0.662 -33.062  1.00  0.00     0.321 C 
ATOM      8  O   UNL     1     -10.779  -0.130 -33.965  1.00  0.00    -0.251 OA
BRANCH   7   9
ATOM      9  O   UNL     1     -10.989   1.952 -33.075  1.00  0.00    -0.480 OA
ATOM     10  H   UNL     1     -11.858   1.952 -32.596  1.00  0.00     0.296 HD
ENDBRANCH   7   9
ENDBRANCH   6   7
BRANCH   6  11
ATOM     11  N   UNL     1     -10.736   0.083 -30.680  1.00  0.00    -0.318 NA
ATOM     12  H   UNL     1     -11.669   0.151 -31.108  1.00  0.00     0.119 HD
ATOM     13  H   UNL     1     -10.729   0.893 -30.049  1.00  0.00     0.119 HD
ENDBRANCH   6  11
ENDBRANCH   1   6
TORSDOF 7
ENDMDL
MODEL 10
REMARK VINA RESULT:      -4.3      4.554      5.853
REMARK SMILES C=CCSC[C@H](N)C(=O)O
REMARK SMILES IDX 5 1 4 2 3 3 2 4 1 5 6 6 8 7 9 8 10 9 7 11
REMARK H PARENT 10 10 7 12 7 13
ROOT
ATOM      1  C   UNL     1      -4.195 -10.606 -27.530  1.00  0.00     0.100 C 
ENDROOT
BRANCH   1   2
ATOM      2  S   UNL     1      -3.262  -9.037 -27.414  1.00  0.00    -0.156 SA
BRANCH   2   3
ATOM      3  C   UNL     1      -1.717  -9.698 -26.722  1.00  0.00     0.096 C 
BRANCH   3   4
ATOM      4  C   UNL     1      -0.575  -8.851 -27.192  1.00  0.00    -0.024 C 
ATOM      5  C   UNL     1       0.718  -9.158 -27.018  1.00  0.00     0.005 C 
ENDBRANCH   3   4
ENDBRANCH   2   3
ENDBRANCH   1   2
BRANCH   1   6
ATOM      6  C   UNL     1      -5.684 -10.398 -27.220  1.00  0.00     0.172 C 
BRANCH   6   7
ATOM      7  C   UNL     1      -6.162 -11.498 -26.264  1.00  0.00     0.321 C 
ATOM      8  O   UNL     1      -6.034 -11.487 -25.050  1.00  0.00    -0.251 OA
BRANCH   7   9
ATOM      9  O   UNL     1      -6.742 -12.520 -26.947  1.00  0.00    -0.480 OA
ATOM     10  H   UNL     1      -7.713 -12.461 -26.748  1.00  0.00     0.296 HD
ENDBRANCH   7   9
ENDBRANCH   6   7
BRANCH   6  11
ATOM     11  N   UNL     1      -5.990  -9.069 -26.592  1.00  0.00    -0.318 NA
ATOM     12  H   UNL     1      -5.167  -8.836 -26.020  1.00  0.00     0.119 HD
ATOM     13  H   UNL     1      -6.712  -9.220 -25.879  1.00  0.00     0.119 HD
ENDBRANCH   6  11
ENDBRANCH   1   6
TORSDOF 7
ENDMDL
