MODEL 1
REMARK VINA RESULT:      -6.9      0.000      0.000
REMARK SMILES O=C(O)/C=C\c1ccc(O)c(O)c1
REMARK SMILES IDX 5 1 4 2 6 3 7 4 8 5 9 6 13 7 11 8 10 9 12 11 2 13 1 14 3 15
REMARK H PARENT 10 10 12 12 3 16
ROOT
ATOM      1  C   UNL     1      -3.795  -8.827 -27.561  1.00  0.00     0.016 C 
ATOM      2  C   UNL     1      -5.050  -9.198 -27.258  1.00  0.00     0.094 C 
ENDROOT
BRANCH   1   3
ATOM      3  C   UNL     1      -2.532  -9.499 -27.222  1.00  0.00    -0.021 A 
ATOM      4  C   UNL     1      -1.605  -8.953 -26.320  1.00  0.00     0.012 A 
ATOM      5  C   UNL     1      -0.431  -9.640 -25.991  1.00  0.00     0.051 A 
ATOM      6  C   UNL     1      -0.197 -10.889 -26.549  1.00  0.00     0.157 A 
ATOM      7  C   UNL     1      -2.288 -10.771 -27.761  1.00  0.00     0.058 A 
ATOM      8  C   UNL     1      -1.125 -11.450 -27.422  1.00  0.00     0.157 A 
BRANCH   6   9
ATOM      9  O   UNL     1       0.929 -11.609 -26.267  1.00  0.00    -0.504 OA
ATOM     10  H   UNL     1       0.894 -12.434 -26.783  1.00  0.00     0.293 HD
ENDBRANCH   6   9
BRANCH   8  11
ATOM     11  O   UNL     1      -0.894 -12.685 -27.958  1.00  0.00    -0.504 OA
ATOM     12  H   UNL     1      -0.614 -12.503 -28.877  1.00  0.00     0.293 HD
ENDBRANCH   8  11
ENDBRANCH   1   3
BRANCH   2  13
ATOM     13  C   UNL     1      -5.432 -10.371 -26.447  1.00  0.00     0.328 C 
ATOM     14  O   UNL     1      -5.299 -11.534 -26.776  1.00  0.00    -0.247 OA
BRANCH  13  15
ATOM     15  O   UNL     1      -5.957  -9.988 -25.265  1.00  0.00    -0.478 OA
ATOM     16  H   UNL     1      -6.811 -10.401 -25.042  1.00  0.00     0.297 HD
ENDBRANCH  13  15
ENDBRANCH   2  13
TORSDOF 5
ENDMDL
MODEL 2
REMARK VINA RESULT:      -6.6      1.191      2.123
REMARK SMILES O=C(O)/C=C\c1ccc(O)c(O)c1
REMARK SMILES IDX 5 1 4 2 6 3 7 4 8 5 9 6 13 7 11 8 10 9 12 11 2 13 1 14 3 15
REMARK H PARENT 10 10 12 12 3 16
ROOT
ATOM      1  C   UNL     1      -2.422  -8.782 -27.602  1.00  0.00     0.016 C 
ATOM      2  C   UNL     1      -3.761  -8.710 -27.536  1.00  0.00     0.094 C 
ENDROOT
BRANCH   1   3
ATOM      3  C   UNL     1      -1.540  -9.884 -27.192  1.00  0.00    -0.021 A 
ATOM      4  C   UNL     1      -1.507 -11.116 -27.866  1.00  0.00     0.012 A 
ATOM      5  C   UNL     1      -0.626 -12.129 -27.471  1.00  0.00     0.051 A 
ATOM      6  C   UNL     1       0.242 -11.898 -26.413  1.00  0.00     0.157 A 
ATOM      7  C   UNL     1      -0.642  -9.663 -26.137  1.00  0.00     0.058 A 
ATOM      8  C   UNL     1       0.236 -10.670 -25.758  1.00  0.00     0.157 A 
BRANCH   6   9
ATOM      9  O   UNL     1       1.126 -12.846 -25.981  1.00  0.00    -0.504 OA
ATOM     10  H   UNL     1       2.025 -12.505 -26.125  1.00  0.00     0.293 HD
ENDBRANCH   6   9
BRANCH   8  11
ATOM     11  O   UNL     1       1.102 -10.446 -24.725  1.00  0.00    -0.504 OA
ATOM     12  H   UNL     1       0.638 -10.796 -23.939  1.00  0.00     0.293 HD
ENDBRANCH   8  11
ENDBRANCH   1   3
BRANCH   2  13
ATOM     13  C   UNL     1      -4.653  -9.739 -26.966  1.00  0.00     0.328 C 
ATOM     14  O   UNL     1      -4.558 -10.938 -27.145  1.00  0.00    -0.247 OA
BRANCH  13  15
ATOM     15  O   UNL     1      -5.610  -9.175 -26.200  1.00  0.00    -0.478 OA
ATOM     16  H   UNL     1      -5.734  -8.218 -26.338  1.00  0.00     0.297 HD
ENDBRANCH  13  15
ENDBRANCH   2  13
TORSDOF 5
ENDMDL
MODEL 3
REMARK VINA RESULT:      -6.2      9.264     11.028
REMARK SMILES O=C(O)/C=C\c1ccc(O)c(O)c1
REMARK SMILES IDX 5 1 4 2 6 3 7 4 8 5 9 6 13 7 11 8 10 9 12 11 2 13 1 14 3 15
REMARK H PARENT 10 10 12 12 3 16
ROOT
ATOM      1  C   UNL     1      -2.150   0.006 -28.773  1.00  0.00     0.016 C 
ATOM      2  C   UNL     1      -2.109   0.190 -30.102  1.00  0.00     0.094 C 
ENDROOT
BRANCH   1   3
ATOM      3  C   UNL     1      -3.267  -0.475 -27.947  1.00  0.00    -0.021 A 
ATOM      4  C   UNL     1      -3.902  -1.706 -28.179  1.00  0.00     0.012 A 
ATOM      5  C   UNL     1      -4.936  -2.150 -27.347  1.00  0.00     0.051 A 
ATOM      6  C   UNL     1      -5.319  -1.370 -26.265  1.00  0.00     0.157 A 
ATOM      7  C   UNL     1      -3.655   0.291 -26.838  1.00  0.00     0.058 A 
ATOM      8  C   UNL     1      -4.676  -0.162 -26.012  1.00  0.00     0.157 A 
BRANCH   6   9
ATOM      9  O   UNL     1      -6.321  -1.749 -25.417  1.00  0.00    -0.504 OA
ATOM     10  H   UNL     1      -7.165  -1.664 -25.894  1.00  0.00     0.293 HD
ENDBRANCH   6   9
BRANCH   8  11
ATOM     11  O   UNL     1      -5.049   0.595 -24.938  1.00  0.00    -0.504 OA
ATOM     12  H   UNL     1      -5.767   1.165 -25.281  1.00  0.00     0.293 HD
ENDBRANCH   8  11
ENDBRANCH   1   3
BRANCH   2  13
ATOM     13  C   UNL     1      -3.235  -0.008 -31.036  1.00  0.00     0.328 C 
ATOM     14  O   UNL     1      -4.294   0.589 -31.007  1.00  0.00    -0.247 OA
BRANCH  13  15
ATOM     15  O   UNL     1      -2.939  -0.953 -31.952  1.00  0.00    -0.478 OA
ATOM     16  H   UNL     1      -2.018  -1.271 -31.930  1.00  0.00     0.297 HD
ENDBRANCH  13  15
ENDBRANCH   2  13
TORSDOF 5
ENDMDL
MODEL 4
REMARK VINA RESULT:      -6.2     11.941     14.114
REMARK SMILES O=C(O)/C=C\c1ccc(O)c(O)c1
REMARK SMILES IDX 5 1 4 2 6 3 7 4 8 5 9 6 13 7 11 8 10 9 12 11 2 13 1 14 3 15
REMARK H PARENT 10 10 12 12 3 16
ROOT
ATOM      1  C   UNL     1      -6.299   2.117 -31.304  1.00  0.00     0.016 C 
ATOM      2  C   UNL     1      -5.172   1.481 -30.945  1.00  0.00     0.094 C 
ENDROOT
BRANCH   1   3
ATOM      3  C   UNL     1      -7.485   1.571 -31.982  1.00  0.00    -0.021 A 
ATOM      4  C   UNL     1      -7.474   1.193 -33.334  1.00  0.00     0.012 A 
ATOM      5  C   UNL     1      -8.611   0.640 -33.935  1.00  0.00     0.051 A 
ATOM      6  C   UNL     1      -9.754   0.444 -33.173  1.00  0.00     0.157 A 
ATOM      7  C   UNL     1      -8.643   1.348 -31.223  1.00  0.00     0.058 A 
ATOM      8  C   UNL     1      -9.763   0.791 -31.825  1.00  0.00     0.157 A 
BRANCH   6   9
ATOM      9  O   UNL     1     -10.894  -0.091 -33.702  1.00  0.00    -0.504 OA
ATOM     10  H   UNL     1     -10.783  -1.057 -33.737  1.00  0.00     0.293 HD
ENDBRANCH   6   9
BRANCH   8  11
ATOM     11  O   UNL     1     -10.888   0.583 -31.078  1.00  0.00    -0.504 OA
ATOM     12  H   UNL     1     -11.180  -0.317 -31.324  1.00  0.00     0.293 HD
ENDBRANCH   8  11
ENDBRANCH   1   3
BRANCH   2  13
ATOM     13  C   UNL     1      -4.857   0.064 -31.215  1.00  0.00     0.328 C 
ATOM     14  O   UNL     1      -5.556  -0.887 -30.919  1.00  0.00    -0.247 OA
BRANCH  13  15
ATOM     15  O   UNL     1      -3.671  -0.053 -31.847  1.00  0.00    -0.478 OA
ATOM     16  H   UNL     1      -3.203  -0.893 -31.690  1.00  0.00     0.297 HD
ENDBRANCH  13  15
ENDBRANCH   2  13
TORSDOF 5
ENDMDL
MODEL 5
REMARK VINA RESULT:      -6.1     11.651     13.304
REMARK SMILES O=C(O)/C=C\c1ccc(O)c(O)c1
REMARK SMILES IDX 5 1 4 2 6 3 7 4 8 5 9 6 13 7 11 8 10 9 12 11 2 13 1 14 3 15
REMARK H PARENT 10 10 12 12 3 16
ROOT
ATOM      1  C   UNL     1      -8.167   0.561 -33.583  1.00  0.00     0.016 C 
ATOM      2  C   UNL     1      -9.431   0.558 -34.036  1.00  0.00     0.094 C 
ENDROOT
BRANCH   1   3
ATOM      3  C   UNL     1      -7.690   0.611 -32.194  1.00  0.00    -0.021 A 
ATOM      4  C   UNL     1      -7.597   1.812 -31.470  1.00  0.00     0.012 A 
ATOM      5  C   UNL     1      -7.176   1.816 -30.135  1.00  0.00     0.051 A 
ATOM      6  C   UNL     1      -6.870   0.612 -29.517  1.00  0.00     0.157 A 
ATOM      7  C   UNL     1      -7.395  -0.597 -31.545  1.00  0.00     0.058 A 
ATOM      8  C   UNL     1      -6.986  -0.584 -30.218  1.00  0.00     0.157 A 
BRANCH   6   9
ATOM      9  O   UNL     1      -6.454   0.551 -28.217  1.00  0.00    -0.504 OA
ATOM     10  H   UNL     1      -6.531  -0.372 -27.921  1.00  0.00     0.293 HD
ENDBRANCH   6   9
BRANCH   8  11
ATOM     11  O   UNL     1      -6.696  -1.766 -29.599  1.00  0.00    -0.504 OA
ATOM     12  H   UNL     1      -5.967  -1.546 -28.985  1.00  0.00     0.293 HD
ENDBRANCH   8  11
ENDBRANCH   1   3
BRANCH   2  13
ATOM     13  C   UNL     1     -10.646   0.663 -33.204  1.00  0.00     0.328 C 
ATOM     14  O   UNL     1     -11.344  -0.268 -32.848  1.00  0.00    -0.247 OA
BRANCH  13  15
ATOM     15  O   UNL     1     -10.895   1.947 -32.876  1.00  0.00    -0.478 OA
ATOM     16  H   UNL     1     -11.837   2.198 -32.887  1.00  0.00     0.297 HD
ENDBRANCH  13  15
ENDBRANCH   2  13
TORSDOF 5
ENDMDL
MODEL 6
REMARK VINA RESULT:      -6.0     12.064     13.729
REMARK SMILES O=C(O)/C=C\c1ccc(O)c(O)c1
REMARK SMILES IDX 5 1 4 2 6 3 7 4 8 5 9 6 13 7 11 8 10 9 12 11 2 13 1 14 3 15
REMARK H PARENT 10 10 12 12 3 16
ROOT
ATOM      1  C   UNL     1      -8.231   0.511 -33.740  1.00  0.00     0.016 C 
ATOM      2  C   UNL     1      -9.525   0.513 -34.098  1.00  0.00     0.094 C 
ENDROOT
BRANCH   1   3
ATOM      3  C   UNL     1      -7.651   0.576 -32.390  1.00  0.00    -0.021 A 
ATOM      4  C   UNL     1      -7.463  -0.566 -31.594  1.00  0.00     0.012 A 
ATOM      5  C   UNL     1      -6.872  -0.472 -30.329  1.00  0.00     0.051 A 
ATOM      6  C   UNL     1      -6.446   0.767 -29.871  1.00  0.00     0.157 A 
ATOM      7  C   UNL     1      -7.197   1.815 -31.918  1.00  0.00     0.058 A 
ATOM      8  C   UNL     1      -6.603   1.898 -30.665  1.00  0.00     0.157 A 
BRANCH   6   9
ATOM      9  O   UNL     1      -5.861   0.923 -28.646  1.00  0.00    -0.504 OA
ATOM     10  H   UNL     1      -5.284   0.156 -28.489  1.00  0.00     0.293 HD
ENDBRANCH   6   9
BRANCH   8  11
ATOM     11  O   UNL     1      -6.169   3.112 -30.212  1.00  0.00    -0.504 OA
ATOM     12  H   UNL     1      -6.442   3.132 -29.273  1.00  0.00     0.293 HD
ENDBRANCH   8  11
ENDBRANCH   1   3
BRANCH   2  13
ATOM     13  C   UNL     1     -10.674   0.640 -33.180  1.00  0.00     0.328 C 
ATOM     14  O   UNL     1     -11.358  -0.278 -32.768  1.00  0.00    -0.247 OA
BRANCH  13  15
ATOM     15  O   UNL     1     -10.880   1.930 -32.842  1.00  0.00    -0.478 OA
ATOM     16  H   UNL     1     -10.511   2.581 -33.467  1.00  0.00     0.297 HD
ENDBRANCH  13  15
ENDBRANCH   2  13
TORSDOF 5
ENDMDL
MODEL 7
REMARK VINA RESULT:      -5.9     15.882     17.867
REMARK SMILES O=C(O)/C=C\c1ccc(O)c(O)c1
REMARK SMILES IDX 5 1 4 2 6 3 7 4 8 5 9 6 13 7 11 8 10 9 12 11 2 13 1 14 3 15
REMARK H PARENT 10 10 12 12 3 16
ROOT
ATOM      1  C   UNL     1       7.587  -0.730 -18.994  1.00  0.00     0.016 C 
ATOM      2  C   UNL     1       6.733  -1.760 -19.107  1.00  0.00     0.094 C 
ENDROOT
BRANCH   1   3
ATOM      3  C   UNL     1       8.248  -0.214 -17.787  1.00  0.00    -0.021 A 
ATOM      4  C   UNL     1       9.345  -0.859 -17.192  1.00  0.00     0.012 A 
ATOM      5  C   UNL     1       9.975  -0.317 -16.066  1.00  0.00     0.051 A 
ATOM      6  C   UNL     1       9.519   0.888 -15.548  1.00  0.00     0.157 A 
ATOM      7  C   UNL     1       7.815   1.012 -17.261  1.00  0.00     0.058 A 
ATOM      8  C   UNL     1       8.450   1.547 -16.149  1.00  0.00     0.157 A 
BRANCH   6   9
ATOM      9  O   UNL     1      10.091   1.468 -14.452  1.00  0.00    -0.504 OA
ATOM     10  H   UNL     1      10.663   2.192 -14.760  1.00  0.00     0.293 HD
ENDBRANCH   6   9
BRANCH   8  11
ATOM     11  O   UNL     1       8.016   2.739 -15.641  1.00  0.00    -0.504 OA
ATOM     12  H   UNL     1       7.042   2.653 -15.620  1.00  0.00     0.293 HD
ENDBRANCH   8  11
ENDBRANCH   1   3
BRANCH   2  13
ATOM     13  C   UNL     1       6.220  -2.583 -17.993  1.00  0.00     0.328 C 
ATOM     14  O   UNL     1       5.887  -2.167 -16.900  1.00  0.00    -0.247 OA
BRANCH  13  15
ATOM     15  O   UNL     1       6.162  -3.884 -18.344  1.00  0.00    -0.478 OA
ATOM     16  H   UNL     1       6.115  -4.048 -19.304  1.00  0.00     0.297 HD
ENDBRANCH  13  15
ENDBRANCH   2  13
TORSDOF 5
ENDMDL
MODEL 8
REMARK VINA RESULT:      -5.9     10.783     12.765
REMARK SMILES O=C(O)/C=C\c1ccc(O)c(O)c1
REMARK SMILES IDX 5 1 4 2 6 3 7 4 8 5 9 6 13 7 11 8 10 9 12 11 2 13 1 14 3 15
REMARK H PARENT 10 10 12 12 3 16
ROOT
ATOM      1  C   UNL     1      -8.086   0.285 -32.306  1.00  0.00     0.016 C 
ATOM      2  C   UNL     1      -8.837   0.863 -33.257  1.00  0.00     0.094 C 
ENDROOT
BRANCH   1   3
ATOM      3  C   UNL     1      -8.509  -0.617 -31.225  1.00  0.00    -0.021 A 
ATOM      4  C   UNL     1      -8.923  -0.146 -29.968  1.00  0.00     0.012 A 
ATOM      5  C   UNL     1      -9.357  -1.032 -28.975  1.00  0.00     0.051 A 
ATOM      6  C   UNL     1      -9.398  -2.392 -29.251  1.00  0.00     0.157 A 
ATOM      7  C   UNL     1      -8.576  -1.992 -31.491  1.00  0.00     0.058 A 
ATOM      8  C   UNL     1      -9.016  -2.863 -30.503  1.00  0.00     0.157 A 
BRANCH   6   9
ATOM      9  O   UNL     1      -9.812  -3.307 -28.325  1.00  0.00    -0.504 OA
ATOM     10  H   UNL     1     -10.782  -3.252 -28.263  1.00  0.00     0.293 HD
ENDBRANCH   6   9
BRANCH   8  11
ATOM     11  O   UNL     1      -9.072  -4.202 -30.772  1.00  0.00    -0.504 OA
ATOM     12  H   UNL     1      -9.574  -4.260 -31.609  1.00  0.00     0.293 HD
ENDBRANCH   8  11
ENDBRANCH   1   3
BRANCH   2  13
ATOM     13  C   UNL     1     -10.303   0.752 -33.386  1.00  0.00     0.328 C 
ATOM     14  O   UNL     1     -10.909  -0.231 -33.769  1.00  0.00    -0.247 OA
BRANCH  13  15
ATOM     15  O   UNL     1     -10.907   1.900 -33.017  1.00  0.00    -0.478 OA
ATOM     16  H   UNL     1     -10.373   2.705 -33.145  1.00  0.00     0.297 HD
ENDBRANCH  13  15
ENDBRANCH   2  13
TORSDOF 5
ENDMDL
MODEL 9
REMARK VINA RESULT:      -5.8      9.791     11.066
REMARK SMILES O=C(O)/C=C\c1ccc(O)c(O)c1
REMARK SMILES IDX 5 1 4 2 6 3 7 4 8 5 9 6 13 7 11 8 10 9 12 11 2 13 1 14 3 15
REMARK H PARENT 10 10 12 12 3 16
ROOT
ATOM      1  C   UNL     1      -4.678  -2.053 -28.051  1.00  0.00     0.016 C 
ATOM      2  C   UNL     1      -4.997  -1.668 -26.804  1.00  0.00     0.094 C 
ENDROOT
BRANCH   1   3
ATOM      3  C   UNL     1      -4.494  -1.221 -29.249  1.00  0.00    -0.021 A 
ATOM      4  C   UNL     1      -5.573  -0.662 -29.953  1.00  0.00     0.012 A 
ATOM      5  C   UNL     1      -5.357   0.158 -31.067  1.00  0.00     0.051 A 
ATOM      6  C   UNL     1      -4.056   0.437 -31.462  1.00  0.00     0.157 A 
ATOM      7  C   UNL     1      -3.187  -0.912 -29.652  1.00  0.00     0.058 A 
ATOM      8  C   UNL     1      -2.982  -0.091 -30.753  1.00  0.00     0.157 A 
BRANCH   6   9
ATOM      9  O   UNL     1      -3.782   1.229 -32.540  1.00  0.00    -0.504 OA
ATOM     10  H   UNL     1      -4.572   1.764 -32.728  1.00  0.00     0.293 HD
ENDBRANCH   6   9
BRANCH   8  11
ATOM     11  O   UNL     1      -1.704   0.199 -31.140  1.00  0.00    -0.504 OA
ATOM     12  H   UNL     1      -1.694   1.172 -31.232  1.00  0.00     0.293 HD
ENDBRANCH   8  11
ENDBRANCH   1   3
BRANCH   2  13
ATOM     13  C   UNL     1      -5.293  -0.287 -26.376  1.00  0.00     0.328 C 
ATOM     14  O   UNL     1      -6.402   0.206 -26.286  1.00  0.00    -0.247 OA
BRANCH  13  15
ATOM     15  O   UNL     1      -4.157   0.381 -26.088  1.00  0.00    -0.478 OA
ATOM     16  H   UNL     1      -3.340  -0.142 -26.177  1.00  0.00     0.297 HD
ENDBRANCH  13  15
ENDBRANCH   2  13
TORSDOF 5
ENDMDL
MODEL 10
REMARK VINA RESULT:      -5.8     11.821     13.264
REMARK SMILES O=C(O)/C=C\c1ccc(O)c(O)c1
REMARK SMILES IDX 5 1 4 2 6 3 7 4 8 5 9 6 13 7 11 8 10 9 12 11 2 13 1 14 3 15
REMARK H PARENT 10 10 12 12 3 16
ROOT
ATOM      1  C   UNL     1      -9.451  -0.049 -30.644  1.00  0.00     0.016 C 
ATOM      2  C   UNL     1     -10.488  -0.048 -31.496  1.00  0.00     0.094 C 
ENDROOT
BRANCH   1   3
ATOM      3  C   UNL     1      -8.096   0.484 -30.846  1.00  0.00    -0.021 A 
ATOM      4  C   UNL     1      -7.828   1.862 -30.900  1.00  0.00     0.012 A 
ATOM      5  C   UNL     1      -6.519   2.335 -31.054  1.00  0.00     0.051 A 
ATOM      6  C   UNL     1      -5.474   1.424 -31.131  1.00  0.00     0.157 A 
ATOM      7  C   UNL     1      -7.025  -0.419 -30.907  1.00  0.00     0.058 A 
ATOM      8  C   UNL     1      -5.729   0.059 -31.051  1.00  0.00     0.157 A 
BRANCH   6   9
ATOM      9  O   UNL     1      -4.176   1.823 -31.281  1.00  0.00    -0.504 OA
ATOM     10  H   UNL     1      -4.181   2.725 -31.646  1.00  0.00     0.293 HD
ENDBRANCH   6   9
BRANCH   8  11
ATOM     11  O   UNL     1      -4.694  -0.831 -31.115  1.00  0.00    -0.504 OA
ATOM     12  H   UNL     1      -4.289  -0.795 -30.226  1.00  0.00     0.293 HD
ENDBRANCH   8  11
ENDBRANCH   1   3
BRANCH   2  13
ATOM     13  C   UNL     1     -10.467   0.460 -32.882  1.00  0.00     0.328 C 
ATOM     14  O   UNL     1     -10.051  -0.145 -33.852  1.00  0.00    -0.247 OA
BRANCH  13  15
ATOM     15  O   UNL     1     -10.979   1.706 -32.946  1.00  0.00    -0.478 OA
ATOM     16  H   UNL     1     -10.351   2.394 -33.233  1.00  0.00     0.297 HD
ENDBRANCH  13  15
ENDBRANCH   2  13
TORSDOF 5
ENDMDL
