MODEL 1
REMARK VINA RESULT:      -6.9      0.000      0.000
REMARK SMILES O=C(O)/C=C/c1ccc(O)cc1
REMARK SMILES IDX 5 1 4 2 6 3 7 4 8 5 9 6 12 7 11 8 10 9 2 11 1 12 3 13
REMARK H PARENT 10 10 3 14
ROOT
ATOM      1  C   UNL     1       6.031  -2.350 -20.250  1.00  0.00     0.015 C 
ATOM      2  C   UNL     1       5.655  -1.633 -21.321  1.00  0.00     0.094 C 
ENDROOT
BRANCH   1   3
ATOM      3  C   UNL     1       6.596  -1.756 -19.033  1.00  0.00    -0.025 A 
ATOM      4  C   UNL     1       6.085  -2.038 -17.757  1.00  0.00     0.012 A 
ATOM      5  C   UNL     1       6.630  -1.432 -16.621  1.00  0.00     0.047 A 
ATOM      6  C   UNL     1       7.685  -0.536 -16.764  1.00  0.00     0.115 A 
ATOM      7  C   UNL     1       7.646  -0.837 -19.154  1.00  0.00     0.012 A 
ATOM      8  C   UNL     1       8.194  -0.233 -18.020  1.00  0.00     0.047 A 
BRANCH   6   9
ATOM      9  O   UNL     1       8.247   0.078 -15.685  1.00  0.00    -0.508 OA
ATOM     10  H   UNL     1       8.181  -0.515 -14.918  1.00  0.00     0.293 HD
ENDBRANCH   6   9
ENDBRANCH   1   3
BRANCH   2  11
ATOM     11  C   UNL     1       5.083  -2.330 -22.490  1.00  0.00     0.328 C 
ATOM     12  O   UNL     1       4.415  -3.348 -22.434  1.00  0.00    -0.247 OA
BRANCH  11  13
ATOM     13  O   UNL     1       5.385  -1.709 -23.647  1.00  0.00    -0.478 OA
ATOM     14  H   UNL     1       5.852  -0.859 -23.559  1.00  0.00     0.297 HD
ENDBRANCH  11  13
ENDBRANCH   2  11
TORSDOF 4
ENDMDL
MODEL 2
REMARK VINA RESULT:      -6.0     13.002     13.954
REMARK SMILES O=C(O)/C=C/c1ccc(O)cc1
REMARK SMILES IDX 5 1 4 2 6 3 7 4 8 5 9 6 12 7 11 8 10 9 2 11 1 12 3 13
REMARK H PARENT 10 10 3 14
ROOT
ATOM      1  C   UNL     1      -5.306  -1.139 -26.007  1.00  0.00     0.015 C 
ATOM      2  C   UNL     1      -5.597  -0.421 -24.911  1.00  0.00     0.094 C 
ENDROOT
BRANCH   1   3
ATOM      3  C   UNL     1      -4.286  -0.747 -26.987  1.00  0.00    -0.025 A 
ATOM      4  C   UNL     1      -3.563   0.450 -26.875  1.00  0.00     0.012 A 
ATOM      5  C   UNL     1      -2.618   0.805 -27.843  1.00  0.00     0.047 A 
ATOM      6  C   UNL     1      -2.401  -0.038 -28.928  1.00  0.00     0.115 A 
ATOM      7  C   UNL     1      -4.064  -1.571 -28.097  1.00  0.00     0.012 A 
ATOM      8  C   UNL     1      -3.118  -1.220 -29.063  1.00  0.00     0.047 A 
BRANCH   6   9
ATOM      9  O   UNL     1      -1.491   0.267 -29.894  1.00  0.00    -0.508 OA
ATOM     10  H   UNL     1      -1.790  -0.113 -30.737  1.00  0.00     0.293 HD
ENDBRANCH   6   9
ENDBRANCH   1   3
BRANCH   2  11
ATOM     11  C   UNL     1      -6.631  -0.914 -23.980  1.00  0.00     0.328 C 
ATOM     12  O   UNL     1      -7.532  -0.234 -23.518  1.00  0.00    -0.247 OA
BRANCH  11  13
ATOM     13  O   UNL     1      -6.469  -2.220 -23.690  1.00  0.00    -0.478 OA
ATOM     14  H   UNL     1      -7.243  -2.663 -23.299  1.00  0.00     0.297 HD
ENDBRANCH  11  13
ENDBRANCH   2  11
TORSDOF 4
ENDMDL
MODEL 3
REMARK VINA RESULT:      -6.0     15.777     19.204
REMARK SMILES O=C(O)/C=C/c1ccc(O)cc1
REMARK SMILES IDX 5 1 4 2 6 3 7 4 8 5 9 6 12 7 11 8 10 9 2 11 1 12 3 13
REMARK H PARENT 10 10 3 14
ROOT
ATOM      1  C   UNL     1      -5.670   1.042 -31.948  1.00  0.00     0.015 C 
ATOM      2  C   UNL     1      -5.159   0.063 -31.185  1.00  0.00     0.094 C 
ENDROOT
BRANCH   1   3
ATOM      3  C   UNL     1      -7.098   1.164 -32.264  1.00  0.00    -0.025 A 
ATOM      4  C   UNL     1      -7.621   0.792 -33.511  1.00  0.00     0.012 A 
ATOM      5  C   UNL     1      -8.983   0.948 -33.787  1.00  0.00     0.047 A 
ATOM      6  C   UNL     1      -9.821   1.485 -32.815  1.00  0.00     0.115 A 
ATOM      7  C   UNL     1      -7.957   1.719 -31.307  1.00  0.00     0.012 A 
ATOM      8  C   UNL     1      -9.317   1.873 -31.580  1.00  0.00     0.047 A 
BRANCH   6   9
ATOM      9  O   UNL     1     -11.154   1.656 -33.040  1.00  0.00    -0.508 OA
ATOM     10  H   UNL     1     -11.269   2.202 -33.835  1.00  0.00     0.293 HD
ENDBRANCH   6   9
ENDBRANCH   1   3
BRANCH   2  11
ATOM     11  C   UNL     1      -3.708   0.042 -30.915  1.00  0.00     0.328 C 
ATOM     12  O   UNL     1      -3.164   0.626 -29.994  1.00  0.00    -0.247 OA
BRANCH  11  13
ATOM     13  O   UNL     1      -3.038  -0.706 -31.813  1.00  0.00    -0.478 OA
ATOM     14  H   UNL     1      -3.578  -1.335 -32.324  1.00  0.00     0.297 HD
ENDBRANCH  11  13
ENDBRANCH   2  11
TORSDOF 4
ENDMDL
MODEL 4
REMARK VINA RESULT:      -5.9     15.949     18.819
REMARK SMILES O=C(O)/C=C/c1ccc(O)cc1
REMARK SMILES IDX 5 1 4 2 6 3 7 4 8 5 9 6 12 7 11 8 10 9 2 11 1 12 3 13
REMARK H PARENT 10 10 3 14
ROOT
ATOM      1  C   UNL     1      -8.311   0.283 -32.075  1.00  0.00     0.015 C 
ATOM      2  C   UNL     1      -8.840   0.895 -33.146  1.00  0.00     0.094 C 
ENDROOT
BRANCH   1   3
ATOM      3  C   UNL     1      -6.880   0.303 -31.752  1.00  0.00    -0.025 A 
ATOM      4  C   UNL     1      -6.295  -0.637 -30.891  1.00  0.00     0.012 A 
ATOM      5  C   UNL     1      -4.932  -0.571 -30.584  1.00  0.00     0.047 A 
ATOM      6  C   UNL     1      -4.156   0.444 -31.134  1.00  0.00     0.115 A 
ATOM      7  C   UNL     1      -6.082   1.326 -32.281  1.00  0.00     0.012 A 
ATOM      8  C   UNL     1      -4.721   1.392 -31.977  1.00  0.00     0.047 A 
BRANCH   6   9
ATOM      9  O   UNL     1      -2.825   0.548 -30.863  1.00  0.00    -0.508 OA
ATOM     10  H   UNL     1      -2.708   1.121 -30.087  1.00  0.00     0.293 HD
ENDBRANCH   6   9
ENDBRANCH   1   3
BRANCH   2  11
ATOM     11  C   UNL     1     -10.298   0.826 -33.370  1.00  0.00     0.328 C 
ATOM     12  O   UNL     1     -10.887  -0.145 -33.812  1.00  0.00    -0.247 OA
BRANCH  11  13
ATOM     13  O   UNL     1     -10.917   1.972 -33.027  1.00  0.00    -0.478 OA
ATOM     14  H   UNL     1     -11.886   1.918 -32.942  1.00  0.00     0.297 HD
ENDBRANCH  11  13
ENDBRANCH   2  11
TORSDOF 4
ENDMDL
MODEL 5
REMARK VINA RESULT:      -5.9     16.031     18.822
REMARK SMILES O=C(O)/C=C/c1ccc(O)cc1
REMARK SMILES IDX 5 1 4 2 6 3 7 4 8 5 9 6 12 7 11 8 10 9 2 11 1 12 3 13
REMARK H PARENT 10 10 3 14
ROOT
ATOM      1  C   UNL     1      -8.616   1.669 -31.788  1.00  0.00     0.015 C 
ATOM      2  C   UNL     1      -9.163   0.665 -32.491  1.00  0.00     0.094 C 
ENDROOT
BRANCH   1   3
ATOM      3  C   UNL     1      -7.219   1.678 -31.337  1.00  0.00    -0.025 A 
ATOM      4  C   UNL     1      -6.222   0.929 -31.981  1.00  0.00     0.012 A 
ATOM      5  C   UNL     1      -4.906   0.940 -31.507  1.00  0.00     0.047 A 
ATOM      6  C   UNL     1      -4.590   1.696 -30.383  1.00  0.00     0.115 A 
ATOM      7  C   UNL     1      -6.881   2.417 -30.197  1.00  0.00     0.012 A 
ATOM      8  C   UNL     1      -5.567   2.431 -29.725  1.00  0.00     0.047 A 
BRANCH   6   9
ATOM      9  O   UNL     1      -3.322   1.736 -29.886  1.00  0.00    -0.508 OA
ATOM     10  H   UNL     1      -2.781   2.310 -30.454  1.00  0.00     0.293 HD
ENDBRANCH   6   9
ENDBRANCH   1   3
BRANCH   2  11
ATOM     11  C   UNL     1     -10.575   0.764 -32.909  1.00  0.00     0.328 C 
ATOM     12  O   UNL     1     -11.317  -0.188 -33.083  1.00  0.00    -0.247 OA
BRANCH  11  13
ATOM     13  O   UNL     1     -10.963   2.043 -33.082  1.00  0.00    -0.478 OA
ATOM     14  H   UNL     1     -10.254   2.708 -33.029  1.00  0.00     0.297 HD
ENDBRANCH  11  13
ENDBRANCH   2  11
TORSDOF 4
ENDMDL
MODEL 6
REMARK VINA RESULT:      -5.9     15.673     19.068
REMARK SMILES O=C(O)/C=C/c1ccc(O)cc1
REMARK SMILES IDX 5 1 4 2 6 3 7 4 8 5 9 6 12 7 11 8 10 9 2 11 1 12 3 13
REMARK H PARENT 10 10 3 14
ROOT
ATOM      1  C   UNL     1      -5.599   1.091 -31.815  1.00  0.00     0.015 C 
ATOM      2  C   UNL     1      -5.101   0.037 -31.149  1.00  0.00     0.094 C 
ENDROOT
BRANCH   1   3
ATOM      3  C   UNL     1      -7.028   1.271 -32.098  1.00  0.00    -0.025 A 
ATOM      4  C   UNL     1      -7.922   1.770 -31.139  1.00  0.00     0.012 A 
ATOM      5  C   UNL     1      -9.283   1.902 -31.435  1.00  0.00     0.047 A 
ATOM      6  C   UNL     1      -9.749   1.528 -32.691  1.00  0.00     0.115 A 
ATOM      7  C   UNL     1      -7.523   0.884 -33.350  1.00  0.00     0.012 A 
ATOM      8  C   UNL     1      -8.881   1.019 -33.647  1.00  0.00     0.047 A 
BRANCH   6   9
ATOM      9  O   UNL     1     -11.066   1.639 -33.023  1.00  0.00    -0.508 OA
ATOM     10  H   UNL     1     -11.244   1.071 -33.791  1.00  0.00     0.293 HD
ENDBRANCH   6   9
ENDBRANCH   1   3
BRANCH   2  11
ATOM     11  C   UNL     1      -3.647  -0.038 -30.903  1.00  0.00     0.328 C 
ATOM     12  O   UNL     1      -3.082   0.427 -29.929  1.00  0.00    -0.247 OA
BRANCH  11  13
ATOM     13  O   UNL     1      -3.001  -0.688 -31.891  1.00  0.00    -0.478 OA
ATOM     14  H   UNL     1      -2.067  -0.901 -31.714  1.00  0.00     0.297 HD
ENDBRANCH  11  13
ENDBRANCH   2  11
TORSDOF 4
ENDMDL
MODEL 7
REMARK VINA RESULT:      -5.8     12.965     14.420
REMARK SMILES O=C(O)/C=C/c1ccc(O)cc1
REMARK SMILES IDX 5 1 4 2 6 3 7 4 8 5 9 6 12 7 11 8 10 9 2 11 1 12 3 13
REMARK H PARENT 10 10 3 14
ROOT
ATOM      1  C   UNL     1      -4.032  -0.133 -26.461  1.00  0.00     0.015 C 
ATOM      2  C   UNL     1      -5.154  -0.632 -25.917  1.00  0.00     0.094 C 
ENDROOT
BRANCH   1   3
ATOM      3  C   UNL     1      -3.667  -0.306 -27.872  1.00  0.00    -0.025 A 
ATOM      4  C   UNL     1      -2.511   0.270 -28.421  1.00  0.00     0.012 A 
ATOM      5  C   UNL     1      -2.209   0.106 -29.776  1.00  0.00     0.047 A 
ATOM      6  C   UNL     1      -3.069  -0.629 -30.585  1.00  0.00     0.115 A 
ATOM      7  C   UNL     1      -4.528  -1.027 -28.709  1.00  0.00     0.012 A 
ATOM      8  C   UNL     1      -4.226  -1.194 -30.063  1.00  0.00     0.047 A 
BRANCH   6   9
ATOM      9  O   UNL     1      -2.815  -0.814 -31.911  1.00  0.00    -0.508 OA
ATOM     10  H   UNL     1      -2.101  -0.213 -32.179  1.00  0.00     0.293 HD
ENDBRANCH   6   9
ENDBRANCH   1   3
BRANCH   2  11
ATOM     11  C   UNL     1      -5.434  -0.385 -24.489  1.00  0.00     0.328 C 
ATOM     12  O   UNL     1      -6.195  -1.047 -23.806  1.00  0.00    -0.247 OA
BRANCH  11  13
ATOM     13  O   UNL     1      -4.744   0.670 -24.014  1.00  0.00    -0.478 OA
ATOM     14  H   UNL     1      -3.809   0.501 -23.801  1.00  0.00     0.297 HD
ENDBRANCH  11  13
ENDBRANCH   2  11
TORSDOF 4
ENDMDL
MODEL 8
REMARK VINA RESULT:      -5.8      1.732      2.529
REMARK SMILES O=C(O)/C=C/c1ccc(O)cc1
REMARK SMILES IDX 5 1 4 2 6 3 7 4 8 5 9 6 12 7 11 8 10 9 2 11 1 12 3 13
REMARK H PARENT 10 10 3 14
ROOT
ATOM      1  C   UNL     1       7.805  -1.411 -19.068  1.00  0.00     0.015 C 
ATOM      2  C   UNL     1       6.550  -1.542 -19.525  1.00  0.00     0.094 C 
ENDROOT
BRANCH   1   3
ATOM      3  C   UNL     1       8.180  -0.511 -17.970  1.00  0.00    -0.025 A 
ATOM      4  C   UNL     1       9.357  -0.689 -17.227  1.00  0.00     0.012 A 
ATOM      5  C   UNL     1       9.668   0.172 -16.170  1.00  0.00     0.047 A 
ATOM      6  C   UNL     1       8.796   1.209 -15.853  1.00  0.00     0.115 A 
ATOM      7  C   UNL     1       7.309   0.529 -17.622  1.00  0.00     0.012 A 
ATOM      8  C   UNL     1       7.620   1.391 -16.568  1.00  0.00     0.047 A 
BRANCH   6   9
ATOM      9  O   UNL     1       9.059   2.072 -14.831  1.00  0.00    -0.508 OA
ATOM     10  H   UNL     1       9.981   2.369 -14.902  1.00  0.00     0.293 HD
ENDBRANCH   6   9
ENDBRANCH   1   3
BRANCH   2  11
ATOM     11  C   UNL     1       6.279  -2.489 -20.625  1.00  0.00     0.328 C 
ATOM     12  O   UNL     1       6.652  -3.649 -20.650  1.00  0.00    -0.247 OA
BRANCH  11  13
ATOM     13  O   UNL     1       5.563  -1.922 -21.615  1.00  0.00    -0.478 OA
ATOM     14  H   UNL     1       5.909  -2.058 -22.515  1.00  0.00     0.297 HD
ENDBRANCH  11  13
ENDBRANCH   2  11
TORSDOF 4
ENDMDL
MODEL 9
REMARK VINA RESULT:      -5.8     11.669     13.995
REMARK SMILES O=C(O)/C=C/c1ccc(O)cc1
REMARK SMILES IDX 5 1 4 2 6 3 7 4 8 5 9 6 12 7 11 8 10 9 2 11 1 12 3 13
REMARK H PARENT 10 10 3 14
ROOT
ATOM      1  C   UNL     1       0.693 -10.181 -25.354  1.00  0.00     0.015 C 
ATOM      2  C   UNL     1       0.899 -11.270 -24.596  1.00  0.00     0.094 C 
ENDROOT
BRANCH   1   3
ATOM      3  C   UNL     1      -0.446 -10.032 -26.268  1.00  0.00    -0.025 A 
ATOM      4  C   UNL     1      -0.786 -11.019 -27.206  1.00  0.00     0.012 A 
ATOM      5  C   UNL     1      -1.862 -10.830 -28.079  1.00  0.00     0.047 A 
ATOM      6  C   UNL     1      -2.593  -9.649 -28.019  1.00  0.00     0.115 A 
ATOM      7  C   UNL     1      -1.186  -8.843 -26.237  1.00  0.00     0.012 A 
ATOM      8  C   UNL     1      -2.262  -8.655 -27.107  1.00  0.00     0.047 A 
BRANCH   6   9
ATOM      9  O   UNL     1      -3.648  -9.422 -28.850  1.00  0.00    -0.508 OA
ATOM     10  H   UNL     1      -3.310  -9.126 -29.712  1.00  0.00     0.293 HD
ENDBRANCH   6   9
ENDBRANCH   1   3
BRANCH   2  11
ATOM     11  C   UNL     1       2.070 -11.311 -23.698  1.00  0.00     0.328 C 
ATOM     12  O   UNL     1       2.267 -12.166 -22.852  1.00  0.00    -0.247 OA
BRANCH  11  13
ATOM     13  O   UNL     1       2.911 -10.281 -23.916  1.00  0.00    -0.478 OA
ATOM     14  H   UNL     1       3.096 -10.080 -24.851  1.00  0.00     0.297 HD
ENDBRANCH  11  13
ENDBRANCH   2  11
TORSDOF 4
ENDMDL
MODEL 10
REMARK VINA RESULT:      -5.7      2.496      6.241
REMARK SMILES O=C(O)/C=C/c1ccc(O)cc1
REMARK SMILES IDX 5 1 4 2 6 3 7 4 8 5 9 6 12 7 11 8 10 9 2 11 1 12 3 13
REMARK H PARENT 10 10 3 14
ROOT
ATOM      1  C   UNL     1       8.182   1.068 -16.752  1.00  0.00     0.015 C 
ATOM      2  C   UNL     1       8.958   1.017 -15.657  1.00  0.00     0.094 C 
ENDROOT
BRANCH   1   3
ATOM      3  C   UNL     1       7.593  -0.118 -17.385  1.00  0.00    -0.025 A 
ATOM      4  C   UNL     1       6.705  -0.965 -16.706  1.00  0.00     0.012 A 
ATOM      5  C   UNL     1       6.184  -2.101 -17.332  1.00  0.00     0.047 A 
ATOM      6  C   UNL     1       6.560  -2.394 -18.639  1.00  0.00     0.115 A 
ATOM      7  C   UNL     1       7.971  -0.443 -18.694  1.00  0.00     0.012 A 
ATOM      8  C   UNL     1       7.450  -1.576 -19.322  1.00  0.00     0.047 A 
BRANCH   6   9
ATOM      9  O   UNL     1       6.078  -3.491 -19.289  1.00  0.00    -0.508 OA
ATOM     10  H   UNL     1       5.181  -3.677 -18.965  1.00  0.00     0.293 HD
ENDBRANCH   6   9
ENDBRANCH   1   3
BRANCH   2  11
ATOM     11  C   UNL     1       9.487   2.273 -15.090  1.00  0.00     0.328 C 
ATOM     12  O   UNL     1      10.621   2.422 -14.669  1.00  0.00    -0.247 OA
BRANCH  11  13
ATOM     13  O   UNL     1       8.564   3.255 -15.087  1.00  0.00    -0.478 OA
ATOM     14  H   UNL     1       8.889   4.137 -14.837  1.00  0.00     0.297 HD
ENDBRANCH  11  13
ENDBRANCH   2  11
TORSDOF 4
ENDMDL
