MODEL 1
REMARK VINA RESULT:      -8.1      0.000      0.000
REMARK SMILES O=C(/C=C/c1ccc(O)c(O)c1)O[C@H](Cc1ccc(O)c(O)c1)C(=O)O
REMARK SMILES IDX 13 1 14 2 15 3 16 4 17 5 18 6 19 7 23 8 21 9 20 10 22 12
REMARK SMILES IDX 24 14 25 15 26 16 2 18 1 19 3 20 4 21 5 22 12 23 6 24 10 25
REMARK SMILES IDX 7 26 8 27 11 28 9 30
REMARK H PARENT 20 11 22 13 26 17 11 29 9 31
ROOT
ATOM      1  O   UNL     1      -8.325  -0.110 -32.199  1.00  0.00    -0.447 OA
ENDROOT
BRANCH   1   2
ATOM      2  C   UNL     1      -9.444   0.548 -31.580  1.00  0.00     0.290 C 
BRANCH   2   3
ATOM      3  C   UNL     1      -9.887  -0.292 -30.370  1.00  0.00     0.093 C 
BRANCH   3   4
ATOM      4  C   UNL     1      -8.721  -0.844 -29.576  1.00  0.00    -0.040 A 
ATOM      5  C   UNL     1      -8.281  -2.162 -29.787  1.00  0.00     0.008 A 
ATOM      6  C   UNL     1      -7.198  -2.681 -29.070  1.00  0.00     0.050 A 
ATOM      7  C   UNL     1      -6.552  -1.875 -28.141  1.00  0.00     0.157 A 
ATOM      8  C   UNL     1      -8.067  -0.052 -28.621  1.00  0.00     0.054 A 
ATOM      9  C   UNL     1      -6.987  -0.571 -27.921  1.00  0.00     0.157 A 
BRANCH   7  10
ATOM     10  O   UNL     1      -5.483  -2.320 -27.414  1.00  0.00    -0.504 OA
ATOM     11  H   UNL     1      -5.644  -2.108 -26.478  1.00  0.00     0.293 HD
ENDBRANCH   7  10
BRANCH   9  12
ATOM     12  O   UNL     1      -6.346   0.216 -27.008  1.00  0.00    -0.504 OA
ATOM     13  H   UNL     1      -5.619   0.633 -27.512  1.00  0.00     0.293 HD
ENDBRANCH   9  12
ENDBRANCH   3   4
ENDBRANCH   2   3
BRANCH   2  14
ATOM     14  C   UNL     1     -10.622   0.711 -32.552  1.00  0.00     0.345 C 
ATOM     15  O   UNL     1     -11.326  -0.206 -32.949  1.00  0.00    -0.248 OA
BRANCH  14  16
ATOM     16  O   UNL     1     -10.839   1.990 -32.945  1.00  0.00    -0.478 OA
ATOM     17  H   UNL     1     -10.586   2.668 -32.272  1.00  0.00     0.296 HD
ENDBRANCH  14  16
ENDBRANCH   2  14
ENDBRANCH   1   2
BRANCH   1  18
ATOM     18  C   UNL     1      -7.437   0.713 -32.800  1.00  0.00     0.331 C 
ATOM     19  O   UNL     1      -7.480   1.051 -33.973  1.00  0.00    -0.247 OA
BRANCH  18  20
ATOM     20  C   UNL     1      -6.392   1.078 -31.829  1.00  0.00     0.094 C 
ATOM     21  C   UNL     1      -5.554   0.140 -31.366  1.00  0.00     0.016 C 
BRANCH  21  22
ATOM     22  C   UNL     1      -4.500   0.414 -30.382  1.00  0.00    -0.021 A 
ATOM     23  C   UNL     1      -4.449   1.628 -29.676  1.00  0.00     0.058 A 
ATOM     24  C   UNL     1      -3.561  -0.589 -30.095  1.00  0.00     0.012 A 
ATOM     25  C   UNL     1      -3.458   1.825 -28.720  1.00  0.00     0.157 A 
ATOM     26  C   UNL     1      -2.566  -0.380 -29.136  1.00  0.00     0.051 A 
ATOM     27  C   UNL     1      -2.523   0.828 -28.458  1.00  0.00     0.157 A 
BRANCH  25  28
ATOM     28  O   UNL     1      -3.365   2.985 -28.003  1.00  0.00    -0.504 OA
ATOM     29  H   UNL     1      -2.750   3.582 -28.463  1.00  0.00     0.293 HD
ENDBRANCH  25  28
BRANCH  27  30
ATOM     30  O   UNL     1      -1.556   1.029 -27.516  1.00  0.00    -0.504 OA
ATOM     31  H   UNL     1      -1.816   1.861 -27.072  1.00  0.00     0.293 HD
ENDBRANCH  27  30
ENDBRANCH  21  22
ENDBRANCH  18  20
ENDBRANCH   1  18
TORSDOF 12
ENDMDL
MODEL 2
REMARK VINA RESULT:      -7.9      0.733      1.352
REMARK SMILES O=C(/C=C/c1ccc(O)c(O)c1)O[C@H](Cc1ccc(O)c(O)c1)C(=O)O
REMARK SMILES IDX 13 1 14 2 15 3 16 4 17 5 18 6 19 7 23 8 21 9 20 10 22 12
REMARK SMILES IDX 24 14 25 15 26 16 2 18 1 19 3 20 4 21 5 22 12 23 6 24 10 25
REMARK SMILES IDX 7 26 8 27 11 28 9 30
REMARK H PARENT 20 11 22 13 26 17 11 29 9 31
ROOT
ATOM      1  O   UNL     1      -8.282  -0.054 -32.335  1.00  0.00    -0.447 OA
ENDROOT
BRANCH   1   2
ATOM      2  C   UNL     1      -9.475   0.582 -31.847  1.00  0.00     0.290 C 
BRANCH   2   3
ATOM      3  C   UNL     1     -10.086  -0.314 -30.756  1.00  0.00     0.093 C 
BRANCH   3   4
ATOM      4  C   UNL     1      -9.073  -0.760 -29.723  1.00  0.00    -0.040 A 
ATOM      5  C   UNL     1      -8.307   0.189 -29.025  1.00  0.00     0.008 A 
ATOM      6  C   UNL     1      -7.376  -0.209 -28.059  1.00  0.00     0.050 A 
ATOM      7  C   UNL     1      -7.215  -1.561 -27.790  1.00  0.00     0.157 A 
ATOM      8  C   UNL     1      -8.883  -2.123 -29.449  1.00  0.00     0.054 A 
ATOM      9  C   UNL     1      -7.966  -2.508 -28.482  1.00  0.00     0.157 A 
BRANCH   7  10
ATOM     10  O   UNL     1      -6.329  -2.014 -26.852  1.00  0.00    -0.504 OA
ATOM     11  H   UNL     1      -6.133  -2.947 -27.047  1.00  0.00     0.293 HD
ENDBRANCH   7  10
BRANCH   9  12
ATOM     12  O   UNL     1      -7.805  -3.836 -28.210  1.00  0.00    -0.504 OA
ATOM     13  H   UNL     1      -8.276  -4.293 -28.935  1.00  0.00     0.293 HD
ENDBRANCH   9  12
ENDBRANCH   3   4
ENDBRANCH   2   3
BRANCH   2  14
ATOM     14  C   UNL     1     -10.504   0.806 -32.965  1.00  0.00     0.345 C 
ATOM     15  O   UNL     1     -10.911  -0.067 -33.719  1.00  0.00    -0.248 OA
BRANCH  14  16
ATOM     16  O   UNL     1     -10.952   2.082 -33.054  1.00  0.00    -0.478 OA
ATOM     17  H   UNL     1     -10.638   2.673 -32.326  1.00  0.00     0.296 HD
ENDBRANCH  14  16
ENDBRANCH   2  14
ENDBRANCH   1   2
BRANCH   1  18
ATOM     18  C   UNL     1      -7.354   0.785 -32.848  1.00  0.00     0.331 C 
ATOM     19  O   UNL     1      -7.314   1.157 -34.011  1.00  0.00    -0.247 OA
BRANCH  18  20
ATOM     20  C   UNL     1      -6.381   1.120 -31.796  1.00  0.00     0.094 C 
ATOM     21  C   UNL     1      -5.343   0.304 -31.561  1.00  0.00     0.016 C 
BRANCH  21  22
ATOM     22  C   UNL     1      -4.341   0.552 -30.518  1.00  0.00    -0.021 A 
ATOM     23  C   UNL     1      -4.334   1.741 -29.771  1.00  0.00     0.058 A 
ATOM     24  C   UNL     1      -3.409  -0.455 -30.218  1.00  0.00     0.012 A 
ATOM     25  C   UNL     1      -3.392   1.913 -28.762  1.00  0.00     0.157 A 
ATOM     26  C   UNL     1      -2.463  -0.271 -29.206  1.00  0.00     0.051 A 
ATOM     27  C   UNL     1      -2.463   0.914 -28.487  1.00  0.00     0.157 A 
BRANCH  25  28
ATOM     28  O   UNL     1      -3.343   3.050 -28.003  1.00  0.00    -0.504 OA
ATOM     29  H   UNL     1      -2.664   2.931 -27.317  1.00  0.00     0.293 HD
ENDBRANCH  25  28
BRANCH  27  30
ATOM     30  O   UNL     1      -1.545   1.090 -27.493  1.00  0.00    -0.504 OA
ATOM     31  H   UNL     1      -1.897   0.574 -26.740  1.00  0.00     0.293 HD
ENDBRANCH  27  30
ENDBRANCH  21  22
ENDBRANCH  18  20
ENDBRANCH   1  18
TORSDOF 12
ENDMDL
MODEL 3
REMARK VINA RESULT:      -7.8      2.274      6.096
REMARK SMILES O=C(/C=C/c1ccc(O)c(O)c1)O[C@H](Cc1ccc(O)c(O)c1)C(=O)O
REMARK SMILES IDX 13 1 14 2 15 3 16 4 17 5 18 6 19 7 23 8 21 9 20 10 22 12
REMARK SMILES IDX 24 14 25 15 26 16 2 18 1 19 3 20 4 21 5 22 12 23 6 24 10 25
REMARK SMILES IDX 7 26 8 27 11 28 9 30
REMARK H PARENT 20 11 22 13 26 17 11 29 9 31
ROOT
ATOM      1  O   UNL     1      -3.773   1.803 -29.896  1.00  0.00    -0.447 OA
ENDROOT
BRANCH   1   2
ATOM      2  C   UNL     1      -3.871   0.382 -29.701  1.00  0.00     0.290 C 
BRANCH   2   3
ATOM      3  C   UNL     1      -3.064   0.011 -28.445  1.00  0.00     0.093 C 
BRANCH   3   4
ATOM      4  C   UNL     1      -3.934  -0.481 -27.308  1.00  0.00    -0.040 A 
ATOM      5  C   UNL     1      -4.576  -1.729 -27.395  1.00  0.00     0.008 A 
ATOM      6  C   UNL     1      -5.372  -2.202 -26.347  1.00  0.00     0.050 A 
ATOM      7  C   UNL     1      -5.525  -1.423 -25.207  1.00  0.00     0.157 A 
ATOM      8  C   UNL     1      -4.115   0.298 -26.155  1.00  0.00     0.054 A 
ATOM      9  C   UNL     1      -4.898  -0.183 -25.116  1.00  0.00     0.157 A 
BRANCH   7  10
ATOM     10  O   UNL     1      -6.283  -1.832 -24.145  1.00  0.00    -0.504 OA
ATOM     11  H   UNL     1      -5.897  -2.656 -23.799  1.00  0.00     0.293 HD
ENDBRANCH   7  10
BRANCH   9  12
ATOM     12  O   UNL     1      -5.050   0.576 -23.992  1.00  0.00    -0.504 OA
ATOM     13  H   UNL     1      -5.926   0.321 -23.640  1.00  0.00     0.293 HD
ENDBRANCH   9  12
ENDBRANCH   3   4
ENDBRANCH   2   3
BRANCH   2  14
ATOM     14  C   UNL     1      -3.333  -0.400 -30.908  1.00  0.00     0.345 C 
ATOM     15  O   UNL     1      -3.434  -1.611 -31.052  1.00  0.00    -0.248 OA
BRANCH  14  16
ATOM     16  O   UNL     1      -2.726   0.374 -31.840  1.00  0.00    -0.478 OA
ATOM     17  H   UNL     1      -2.322  -0.133 -32.586  1.00  0.00     0.296 HD
ENDBRANCH  14  16
ENDBRANCH   2  14
ENDBRANCH   1   2
BRANCH   1  18
ATOM     18  C   UNL     1      -4.865   2.509 -29.525  1.00  0.00     0.331 C 
ATOM     19  O   UNL     1      -4.844   3.517 -28.836  1.00  0.00    -0.247 OA
BRANCH  18  20
ATOM     20  C   UNL     1      -6.067   1.831 -30.036  1.00  0.00     0.094 C 
ATOM     21  C   UNL     1      -6.500   2.086 -31.280  1.00  0.00     0.016 C 
BRANCH  21  22
ATOM     22  C   UNL     1      -7.700   1.472 -31.858  1.00  0.00    -0.021 A 
ATOM     23  C   UNL     1      -8.833   1.189 -31.077  1.00  0.00     0.058 A 
ATOM     24  C   UNL     1      -7.738   1.223 -33.240  1.00  0.00     0.012 A 
ATOM     25  C   UNL     1      -9.964   0.646 -31.678  1.00  0.00     0.157 A 
ATOM     26  C   UNL     1      -8.877   0.673 -33.834  1.00  0.00     0.051 A 
ATOM     27  C   UNL     1      -9.981   0.389 -33.046  1.00  0.00     0.157 A 
BRANCH  25  28
ATOM     28  O   UNL     1     -11.093   0.354 -30.965  1.00  0.00    -0.504 OA
ATOM     29  H   UNL     1     -11.383   1.161 -30.505  1.00  0.00     0.293 HD
ENDBRANCH  25  28
BRANCH  27  30
ATOM     30  O   UNL     1     -11.097  -0.140 -33.628  1.00  0.00    -0.504 OA
ATOM     31  H   UNL     1     -11.842   0.245 -33.124  1.00  0.00     0.293 HD
ENDBRANCH  27  30
ENDBRANCH  21  22
ENDBRANCH  18  20
ENDBRANCH   1  18
TORSDOF 12
ENDMDL
MODEL 4
REMARK VINA RESULT:      -7.7      1.931      3.594
REMARK SMILES O=C(/C=C/c1ccc(O)c(O)c1)O[C@H](Cc1ccc(O)c(O)c1)C(=O)O
REMARK SMILES IDX 13 1 14 2 15 3 16 4 17 5 18 6 19 7 23 8 21 9 20 10 22 12
REMARK SMILES IDX 24 14 25 15 26 16 2 18 1 19 3 20 4 21 5 22 12 23 6 24 10 25
REMARK SMILES IDX 7 26 8 27 11 28 9 30
REMARK H PARENT 20 11 22 13 26 17 11 29 9 31
ROOT
ATOM      1  O   UNL     1      -8.912  -1.170 -30.669  1.00  0.00    -0.447 OA
ENDROOT
BRANCH   1   2
ATOM      2  C   UNL     1      -8.679  -0.178 -31.684  1.00  0.00     0.290 C 
BRANCH   2   3
ATOM      3  C   UNL     1      -8.745   1.210 -31.024  1.00  0.00     0.093 C 
BRANCH   3   4
ATOM      4  C   UNL     1      -7.378   1.790 -30.729  1.00  0.00    -0.040 A 
ATOM      5  C   UNL     1      -7.147   2.486 -29.530  1.00  0.00     0.008 A 
ATOM      6  C   UNL     1      -5.885   3.015 -29.239  1.00  0.00     0.050 A 
ATOM      7  C   UNL     1      -4.852   2.845 -30.150  1.00  0.00     0.157 A 
ATOM      8  C   UNL     1      -6.325   1.643 -31.645  1.00  0.00     0.054 A 
ATOM      9  C   UNL     1      -5.075   2.163 -31.343  1.00  0.00     0.157 A 
BRANCH   7  10
ATOM     10  O   UNL     1      -3.595   3.331 -29.920  1.00  0.00    -0.504 OA
ATOM     11  H   UNL     1      -3.635   3.920 -29.146  1.00  0.00     0.293 HD
ENDBRANCH   7  10
BRANCH   9  12
ATOM     12  O   UNL     1      -4.053   1.996 -32.234  1.00  0.00    -0.504 OA
ATOM     13  H   UNL     1      -3.507   2.801 -32.133  1.00  0.00     0.293 HD
ENDBRANCH   9  12
ENDBRANCH   3   4
ENDBRANCH   2   3
BRANCH   2  14
ATOM     14  C   UNL     1      -9.715  -0.261 -32.814  1.00  0.00     0.345 C 
ATOM     15  O   UNL     1      -9.519  -0.796 -33.897  1.00  0.00    -0.248 OA
BRANCH  14  16
ATOM     16  O   UNL     1     -10.906   0.310 -32.513  1.00  0.00    -0.478 OA
ATOM     17  H   UNL     1     -11.322  -0.035 -31.685  1.00  0.00     0.296 HD
ENDBRANCH  14  16
ENDBRANCH   2  14
ENDBRANCH   1   2
BRANCH   1  18
ATOM     18  C   UNL     1      -8.017  -2.182 -30.641  1.00  0.00     0.331 C 
ATOM     19  O   UNL     1      -8.295  -3.364 -30.777  1.00  0.00    -0.247 OA
BRANCH  18  20
ATOM     20  C   UNL     1      -6.680  -1.631 -30.365  1.00  0.00     0.094 C 
ATOM     21  C   UNL     1      -6.341  -1.300 -29.111  1.00  0.00     0.016 C 
BRANCH  21  22
ATOM     22  C   UNL     1      -5.040  -0.725 -28.752  1.00  0.00    -0.021 A 
ATOM     23  C   UNL     1      -3.995  -0.626 -29.686  1.00  0.00     0.058 A 
ATOM     24  C   UNL     1      -4.861  -0.201 -27.461  1.00  0.00     0.012 A 
ATOM     25  C   UNL     1      -2.793  -0.033 -29.312  1.00  0.00     0.157 A 
ATOM     26  C   UNL     1      -3.648   0.389 -27.094  1.00  0.00     0.051 A 
ATOM     27  C   UNL     1      -2.624   0.467 -28.024  1.00  0.00     0.157 A 
BRANCH  25  28
ATOM     28  O   UNL     1      -1.746   0.090 -30.182  1.00  0.00    -0.504 OA
ATOM     29  H   UNL     1      -1.387  -0.797 -30.358  1.00  0.00     0.293 HD
ENDBRANCH  25  28
BRANCH  27  30
ATOM     30  O   UNL     1      -1.443   1.050 -27.667  1.00  0.00    -0.504 OA
ATOM     31  H   UNL     1      -1.215   1.626 -28.425  1.00  0.00     0.293 HD
ENDBRANCH  27  30
ENDBRANCH  21  22
ENDBRANCH  18  20
ENDBRANCH   1  18
TORSDOF 12
ENDMDL
MODEL 5
REMARK VINA RESULT:      -7.7      2.208      2.815
REMARK SMILES O=C(/C=C/c1ccc(O)c(O)c1)O[C@H](Cc1ccc(O)c(O)c1)C(=O)O
REMARK SMILES IDX 13 1 14 2 15 3 16 4 17 5 18 6 19 7 23 8 21 9 20 10 22 12
REMARK SMILES IDX 24 14 25 15 26 16 2 18 1 19 3 20 4 21 5 22 12 23 6 24 10 25
REMARK SMILES IDX 7 26 8 27 11 28 9 30
REMARK H PARENT 20 11 22 13 26 17 11 29 9 31
ROOT
ATOM      1  O   UNL     1      -8.058  -0.122 -32.913  1.00  0.00    -0.447 OA
ENDROOT
BRANCH   1   2
ATOM      2  C   UNL     1      -9.331  -0.020 -32.251  1.00  0.00     0.290 C 
BRANCH   2   3
ATOM      3  C   UNL     1      -9.754  -1.429 -31.801  1.00  0.00     0.093 C 
BRANCH   3   4
ATOM      4  C   UNL     1      -9.569  -1.654 -30.315  1.00  0.00    -0.040 A 
ATOM      5  C   UNL     1      -9.904  -0.644 -29.397  1.00  0.00     0.008 A 
ATOM      6  C   UNL     1      -9.750  -0.843 -28.021  1.00  0.00     0.050 A 
ATOM      7  C   UNL     1      -9.261  -2.060 -27.564  1.00  0.00     0.157 A 
ATOM      8  C   UNL     1      -9.060  -2.870 -29.834  1.00  0.00     0.054 A 
ATOM      9  C   UNL     1      -8.920  -3.063 -28.467  1.00  0.00     0.157 A 
BRANCH   7  10
ATOM     10  O   UNL     1      -9.096  -2.320 -26.232  1.00  0.00    -0.504 OA
ATOM     11  H   UNL     1      -9.296  -1.505 -25.738  1.00  0.00     0.293 HD
ENDBRANCH   7  10
BRANCH   9  12
ATOM     12  O   UNL     1      -8.443  -4.257 -28.010  1.00  0.00    -0.504 OA
ATOM     13  H   UNL     1      -8.538  -4.866 -28.769  1.00  0.00     0.293 HD
ENDBRANCH   9  12
ENDBRANCH   3   4
ENDBRANCH   2   3
BRANCH   2  14
ATOM     14  C   UNL     1     -10.409   0.572 -33.171  1.00  0.00     0.345 C 
ATOM     15  O   UNL     1     -10.879   0.002 -34.146  1.00  0.00    -0.248 OA
BRANCH  14  16
ATOM     16  O   UNL     1     -10.825   1.810 -32.807  1.00  0.00    -0.478 OA
ATOM     17  H   UNL     1     -10.106   2.392 -32.460  1.00  0.00     0.296 HD
ENDBRANCH  14  16
ENDBRANCH   2  14
ENDBRANCH   1   2
BRANCH   1  18
ATOM     18  C   UNL     1      -7.135   0.785 -32.522  1.00  0.00     0.331 C 
ATOM     19  O   UNL     1      -6.580   1.581 -33.264  1.00  0.00    -0.247 OA
BRANCH  18  20
ATOM     20  C   UNL     1      -6.874   0.611 -31.084  1.00  0.00     0.094 C 
ATOM     21  C   UNL     1      -6.257  -0.496 -30.647  1.00  0.00     0.016 C 
BRANCH  21  22
ATOM     22  C   UNL     1      -5.979  -0.759 -29.230  1.00  0.00    -0.021 A 
ATOM     23  C   UNL     1      -6.293   0.178 -28.231  1.00  0.00     0.058 A 
ATOM     24  C   UNL     1      -5.446  -2.005 -28.861  1.00  0.00     0.012 A 
ATOM     25  C   UNL     1      -6.051  -0.133 -26.897  1.00  0.00     0.157 A 
ATOM     26  C   UNL     1      -5.202  -2.306 -27.519  1.00  0.00     0.051 A 
ATOM     27  C   UNL     1      -5.507  -1.365 -26.548  1.00  0.00     0.157 A 
BRANCH  25  28
ATOM     28  O   UNL     1      -6.340   0.741 -25.886  1.00  0.00    -0.504 OA
ATOM     29  H   UNL     1      -6.361   1.641 -26.256  1.00  0.00     0.293 HD
ENDBRANCH  25  28
BRANCH  27  30
ATOM     30  O   UNL     1      -5.276  -1.663 -25.236  1.00  0.00    -0.504 OA
ATOM     31  H   UNL     1      -4.346  -1.399 -25.085  1.00  0.00     0.293 HD
ENDBRANCH  27  30
ENDBRANCH  21  22
ENDBRANCH  18  20
ENDBRANCH   1  18
TORSDOF 12
ENDMDL
MODEL 6
REMARK VINA RESULT:      -7.6      2.803      6.987
REMARK SMILES O=C(/C=C/c1ccc(O)c(O)c1)O[C@H](Cc1ccc(O)c(O)c1)C(=O)O
REMARK SMILES IDX 13 1 14 2 15 3 16 4 17 5 18 6 19 7 23 8 21 9 20 10 22 12
REMARK SMILES IDX 24 14 25 15 26 16 2 18 1 19 3 20 4 21 5 22 12 23 6 24 10 25
REMARK SMILES IDX 7 26 8 27 11 28 9 30
REMARK H PARENT 20 11 22 13 26 17 11 29 9 31
ROOT
ATOM      1  O   UNL     1      -5.984  -0.538 -30.541  1.00  0.00    -0.447 OA
ENDROOT
BRANCH   1   2
ATOM      2  C   UNL     1      -6.082   0.569 -29.628  1.00  0.00     0.290 C 
BRANCH   2   3
ATOM      3  C   UNL     1      -7.007   1.627 -30.254  1.00  0.00     0.093 C 
BRANCH   3   4
ATOM      4  C   UNL     1      -8.236   1.027 -30.904  1.00  0.00    -0.040 A 
ATOM      5  C   UNL     1      -9.126   0.244 -30.149  1.00  0.00     0.008 A 
ATOM      6  C   UNL     1     -10.272  -0.306 -30.734  1.00  0.00     0.050 A 
ATOM      7  C   UNL     1     -10.528  -0.068 -32.078  1.00  0.00     0.157 A 
ATOM      8  C   UNL     1      -8.503   1.242 -32.265  1.00  0.00     0.054 A 
ATOM      9  C   UNL     1      -9.647   0.701 -32.834  1.00  0.00     0.157 A 
BRANCH   7  10
ATOM     10  O   UNL     1     -11.634  -0.570 -32.706  1.00  0.00    -0.504 OA
ATOM     11  H   UNL     1     -11.774  -1.480 -32.390  1.00  0.00     0.293 HD
ENDBRANCH   7  10
BRANCH   9  12
ATOM     12  O   UNL     1      -9.906   0.933 -34.154  1.00  0.00    -0.504 OA
ATOM     13  H   UNL     1     -10.346   1.806 -34.167  1.00  0.00     0.293 HD
ENDBRANCH   9  12
ENDBRANCH   3   4
ENDBRANCH   2   3
BRANCH   2  14
ATOM     14  C   UNL     1      -4.710   1.193 -29.335  1.00  0.00     0.345 C 
ATOM     15  O   UNL     1      -4.365   1.628 -28.245  1.00  0.00    -0.248 OA
BRANCH  14  16
ATOM     16  O   UNL     1      -3.877   1.218 -30.403  1.00  0.00    -0.478 OA
ATOM     17  H   UNL     1      -3.816   0.360 -30.889  1.00  0.00     0.296 HD
ENDBRANCH  14  16
ENDBRANCH   2  14
ENDBRANCH   1   2
BRANCH   1  18
ATOM     18  C   UNL     1      -5.497  -1.680 -30.006  1.00  0.00     0.331 C 
ATOM     19  O   UNL     1      -4.333  -2.044 -30.075  1.00  0.00    -0.247 OA
BRANCH  18  20
ATOM     20  C   UNL     1      -6.605  -2.427 -29.387  1.00  0.00     0.094 C 
ATOM     21  C   UNL     1      -7.554  -2.976 -30.160  1.00  0.00     0.016 C 
BRANCH  21  22
ATOM     22  C   UNL     1      -8.702  -3.716 -29.624  1.00  0.00    -0.021 A 
ATOM     23  C   UNL     1      -9.513  -4.515 -30.446  1.00  0.00     0.058 A 
ATOM     24  C   UNL     1      -8.952  -3.675 -28.242  1.00  0.00     0.012 A 
ATOM     25  C   UNL     1     -10.564  -5.233 -29.885  1.00  0.00     0.157 A 
ATOM     26  C   UNL     1     -10.013  -4.396 -27.689  1.00  0.00     0.051 A 
ATOM     27  C   UNL     1     -10.811  -5.169 -28.517  1.00  0.00     0.157 A 
BRANCH  25  28
ATOM     28  O   UNL     1     -11.382  -6.027 -30.640  1.00  0.00    -0.504 OA
ATOM     29  H   UNL     1     -10.828  -6.645 -31.147  1.00  0.00     0.293 HD
ENDBRANCH  25  28
BRANCH  27  30
ATOM     30  O   UNL     1     -11.842  -5.880 -27.975  1.00  0.00    -0.504 OA
ATOM     31  H   UNL     1     -12.325  -5.231 -27.424  1.00  0.00     0.293 HD
ENDBRANCH  27  30
ENDBRANCH  21  22
ENDBRANCH  18  20
ENDBRANCH   1  18
TORSDOF 12
ENDMDL
MODEL 7
REMARK VINA RESULT:      -7.6      1.759      6.249
REMARK SMILES O=C(/C=C/c1ccc(O)c(O)c1)O[C@H](Cc1ccc(O)c(O)c1)C(=O)O
REMARK SMILES IDX 13 1 14 2 15 3 16 4 17 5 18 6 19 7 23 8 21 9 20 10 22 12
REMARK SMILES IDX 24 14 25 15 26 16 2 18 1 19 3 20 4 21 5 22 12 23 6 24 10 25
REMARK SMILES IDX 7 26 8 27 11 28 9 30
REMARK H PARENT 20 11 22 13 26 17 11 29 9 31
ROOT
ATOM      1  O   UNL     1      -4.292   1.722 -28.495  1.00  0.00    -0.447 OA
ENDROOT
BRANCH   1   2
ATOM      2  C   UNL     1      -3.705   0.483 -28.930  1.00  0.00     0.290 C 
BRANCH   2   3
ATOM      3  C   UNL     1      -4.225  -0.642 -28.018  1.00  0.00     0.093 C 
BRANCH   3   4
ATOM      4  C   UNL     1      -5.667  -1.009 -28.299  1.00  0.00    -0.040 A 
ATOM      5  C   UNL     1      -6.665  -0.737 -27.348  1.00  0.00     0.008 A 
ATOM      6  C   UNL     1      -8.003  -1.060 -27.599  1.00  0.00     0.050 A 
ATOM      7  C   UNL     1      -8.341  -1.655 -28.806  1.00  0.00     0.157 A 
ATOM      8  C   UNL     1      -6.026  -1.627 -29.506  1.00  0.00     0.054 A 
ATOM      9  C   UNL     1      -7.357  -1.934 -29.750  1.00  0.00     0.157 A 
BRANCH   7  10
ATOM     10  O   UNL     1      -9.631  -1.987 -29.115  1.00  0.00    -0.504 OA
ATOM     11  H   UNL     1      -9.610  -2.730 -29.743  1.00  0.00     0.293 HD
ENDBRANCH   7  10
BRANCH   9  12
ATOM     12  O   UNL     1      -7.697  -2.517 -30.937  1.00  0.00    -0.504 OA
ATOM     13  H   UNL     1      -7.696  -3.477 -30.748  1.00  0.00     0.293 HD
ENDBRANCH   9  12
ENDBRANCH   3   4
ENDBRANCH   2   3
BRANCH   2  14
ATOM     14  C   UNL     1      -2.171   0.525 -28.872  1.00  0.00     0.345 C 
ATOM     15  O   UNL     1      -1.433   0.219 -29.798  1.00  0.00    -0.248 OA
BRANCH  14  16
ATOM     16  O   UNL     1      -1.676   0.952 -27.685  1.00  0.00    -0.478 OA
ATOM     17  H   UNL     1      -0.702   0.817 -27.581  1.00  0.00     0.296 HD
ENDBRANCH  14  16
ENDBRANCH   2  14
ENDBRANCH   1   2
BRANCH   1  18
ATOM     18  C   UNL     1      -4.762   2.512 -29.486  1.00  0.00     0.331 C 
ATOM     19  O   UNL     1      -4.224   3.536 -29.879  1.00  0.00    -0.247 OA
BRANCH  18  20
ATOM     20  C   UNL     1      -6.044   1.968 -29.962  1.00  0.00     0.094 C 
ATOM     21  C   UNL     1      -6.252   1.802 -31.277  1.00  0.00     0.016 C 
BRANCH  21  22
ATOM     22  C   UNL     1      -7.507   1.288 -31.837  1.00  0.00    -0.021 A 
ATOM     23  C   UNL     1      -8.635   1.059 -31.031  1.00  0.00     0.058 A 
ATOM     24  C   UNL     1      -7.599   1.083 -33.223  1.00  0.00     0.012 A 
ATOM     25  C   UNL     1      -9.816   0.612 -31.613  1.00  0.00     0.157 A 
ATOM     26  C   UNL     1      -8.789   0.630 -33.798  1.00  0.00     0.051 A 
ATOM     27  C   UNL     1      -9.888   0.397 -32.987  1.00  0.00     0.157 A 
BRANCH  25  28
ATOM     28  O   UNL     1     -10.943   0.376 -30.875  1.00  0.00    -0.504 OA
ATOM     29  H   UNL     1     -10.677  -0.025 -30.030  1.00  0.00     0.293 HD
ENDBRANCH  25  28
BRANCH  27  30
ATOM     30  O   UNL     1     -11.053  -0.038 -33.550  1.00  0.00    -0.504 OA
ATOM     31  H   UNL     1     -10.819  -0.890 -33.969  1.00  0.00     0.293 HD
ENDBRANCH  27  30
ENDBRANCH  21  22
ENDBRANCH  18  20
ENDBRANCH   1  18
TORSDOF 12
ENDMDL
MODEL 8
REMARK VINA RESULT:      -7.6      2.420      4.961
REMARK SMILES O=C(/C=C/c1ccc(O)c(O)c1)O[C@H](Cc1ccc(O)c(O)c1)C(=O)O
REMARK SMILES IDX 13 1 14 2 15 3 16 4 17 5 18 6 19 7 23 8 21 9 20 10 22 12
REMARK SMILES IDX 24 14 25 15 26 16 2 18 1 19 3 20 4 21 5 22 12 23 6 24 10 25
REMARK SMILES IDX 7 26 8 27 11 28 9 30
REMARK H PARENT 20 11 22 13 26 17 11 29 9 31
ROOT
ATOM      1  O   UNL     1      -9.399  -2.304 -28.501  1.00  0.00    -0.447 OA
ENDROOT
BRANCH   1   2
ATOM      2  C   UNL     1      -8.918  -3.115 -29.588  1.00  0.00     0.290 C 
BRANCH   2   3
ATOM      3  C   UNL     1      -9.742  -2.777 -30.842  1.00  0.00     0.093 C 
BRANCH   3   4
ATOM      4  C   UNL     1      -9.367  -1.444 -31.454  1.00  0.00    -0.040 A 
ATOM      5  C   UNL     1      -8.015  -1.098 -31.625  1.00  0.00     0.008 A 
ATOM      6  C   UNL     1      -7.654   0.125 -32.201  1.00  0.00     0.050 A 
ATOM      7  C   UNL     1      -8.650   1.002 -32.608  1.00  0.00     0.157 A 
ATOM      8  C   UNL     1     -10.358  -0.536 -31.856  1.00  0.00     0.054 A 
ATOM      9  C   UNL     1      -9.991   0.669 -32.436  1.00  0.00     0.157 A 
BRANCH   7  10
ATOM     10  O   UNL     1      -8.363   2.208 -33.185  1.00  0.00    -0.504 OA
ATOM     11  H   UNL     1      -8.325   2.080 -34.149  1.00  0.00     0.293 HD
ENDBRANCH   7  10
BRANCH   9  12
ATOM     12  O   UNL     1     -10.965   1.536 -32.841  1.00  0.00    -0.504 OA
ATOM     13  H   UNL     1     -10.493   2.376 -33.004  1.00  0.00     0.293 HD
ENDBRANCH   9  12
ENDBRANCH   3   4
ENDBRANCH   2   3
BRANCH   2  14
ATOM     14  C   UNL     1      -9.038  -4.615 -29.280  1.00  0.00     0.345 C 
ATOM     15  O   UNL     1      -8.990  -5.501 -30.121  1.00  0.00    -0.248 OA
BRANCH  14  16
ATOM     16  O   UNL     1      -9.197  -4.896 -27.965  1.00  0.00    -0.478 OA
ATOM     17  H   UNL     1      -9.571  -4.151 -27.434  1.00  0.00     0.296 HD
ENDBRANCH  14  16
ENDBRANCH   2  14
ENDBRANCH   1   2
BRANCH   1  18
ATOM     18  C   UNL     1      -8.473  -1.989 -27.569  1.00  0.00     0.331 C 
ATOM     19  O   UNL     1      -8.624  -2.114 -26.363  1.00  0.00    -0.247 OA
BRANCH  18  20
ATOM     20  C   UNL     1      -7.293  -1.421 -28.241  1.00  0.00     0.094 C 
ATOM     21  C   UNL     1      -6.065  -1.848 -27.909  1.00  0.00     0.016 C 
BRANCH  21  22
ATOM     22  C   UNL     1      -4.837  -1.320 -28.513  1.00  0.00    -0.021 A 
ATOM     23  C   UNL     1      -4.601  -1.401 -29.896  1.00  0.00     0.058 A 
ATOM     24  C   UNL     1      -3.906  -0.660 -27.694  1.00  0.00     0.012 A 
ATOM     25  C   UNL     1      -3.442  -0.846 -30.429  1.00  0.00     0.157 A 
ATOM     26  C   UNL     1      -2.742  -0.110 -28.238  1.00  0.00     0.051 A 
ATOM     27  C   UNL     1      -2.520  -0.210 -29.603  1.00  0.00     0.157 A 
BRANCH  25  28
ATOM     28  O   UNL     1      -3.166  -0.895 -31.767  1.00  0.00    -0.504 OA
ATOM     29  H   UNL     1      -2.223  -1.110 -31.878  1.00  0.00     0.293 HD
ENDBRANCH  25  28
BRANCH  27  30
ATOM     30  O   UNL     1      -1.387   0.334 -30.135  1.00  0.00    -0.504 OA
ATOM     31  H   UNL     1      -1.566   0.380 -31.096  1.00  0.00     0.293 HD
ENDBRANCH  27  30
ENDBRANCH  21  22
ENDBRANCH  18  20
ENDBRANCH   1  18
TORSDOF 12
ENDMDL
MODEL 9
REMARK VINA RESULT:      -7.5      2.088      6.949
REMARK SMILES O=C(/C=C/c1ccc(O)c(O)c1)O[C@H](Cc1ccc(O)c(O)c1)C(=O)O
REMARK SMILES IDX 13 1 14 2 15 3 16 4 17 5 18 6 19 7 23 8 21 9 20 10 22 12
REMARK SMILES IDX 24 14 25 15 26 16 2 18 1 19 3 20 4 21 5 22 12 23 6 24 10 25
REMARK SMILES IDX 7 26 8 27 11 28 9 30
REMARK H PARENT 20 11 22 13 26 17 11 29 9 31
ROOT
ATOM      1  O   UNL     1      -6.854  -1.710 -26.973  1.00  0.00    -0.447 OA
ENDROOT
BRANCH   1   2
ATOM      2  C   UNL     1      -5.852  -0.788 -26.511  1.00  0.00     0.290 C 
BRANCH   2   3
ATOM      3  C   UNL     1      -4.523  -1.133 -27.205  1.00  0.00     0.093 C 
BRANCH   3   4
ATOM      4  C   UNL     1      -4.373  -0.465 -28.556  1.00  0.00    -0.040 A 
ATOM      5  C   UNL     1      -4.890   0.824 -28.772  1.00  0.00     0.008 A 
ATOM      6  C   UNL     1      -4.747   1.457 -30.011  1.00  0.00     0.050 A 
ATOM      7  C   UNL     1      -4.083   0.797 -31.036  1.00  0.00     0.157 A 
ATOM      8  C   UNL     1      -3.720  -1.122 -29.610  1.00  0.00     0.054 A 
ATOM      9  C   UNL     1      -3.574  -0.483 -30.833  1.00  0.00     0.157 A 
BRANCH   7  10
ATOM     10  O   UNL     1      -3.903   1.365 -32.267  1.00  0.00    -0.504 OA
ATOM     11  H   UNL     1      -3.168   0.904 -32.708  1.00  0.00     0.293 HD
ENDBRANCH   7  10
BRANCH   9  12
ATOM     12  O   UNL     1      -2.920  -1.124 -31.845  1.00  0.00    -0.504 OA
ATOM     13  H   UNL     1      -3.072  -2.074 -31.671  1.00  0.00     0.293 HD
ENDBRANCH   9  12
ENDBRANCH   3   4
ENDBRANCH   2   3
BRANCH   2  14
ATOM     14  C   UNL     1      -5.669  -0.857 -24.987  1.00  0.00     0.345 C 
ATOM     15  O   UNL     1      -5.224   0.051 -24.300  1.00  0.00    -0.248 OA
BRANCH  14  16
ATOM     16  O   UNL     1      -6.060  -2.033 -24.438  1.00  0.00    -0.478 OA
ATOM     17  H   UNL     1      -6.222  -2.752 -25.096  1.00  0.00     0.296 HD
ENDBRANCH  14  16
ENDBRANCH   2  14
ENDBRANCH   1   2
BRANCH   1  18
ATOM     18  C   UNL     1      -8.129  -1.356 -26.697  1.00  0.00     0.331 C 
ATOM     19  O   UNL     1      -8.750  -1.699 -25.703  1.00  0.00    -0.247 OA
BRANCH  18  20
ATOM     20  C   UNL     1      -8.651  -0.549 -27.812  1.00  0.00     0.094 C 
ATOM     21  C   UNL     1      -8.427  -0.933 -29.077  1.00  0.00     0.016 C 
BRANCH  21  22
ATOM     22  C   UNL     1      -8.893  -0.175 -30.245  1.00  0.00    -0.021 A 
ATOM     23  C   UNL     1      -9.988  -0.603 -31.012  1.00  0.00     0.058 A 
ATOM     24  C   UNL     1      -8.266   1.042 -30.559  1.00  0.00     0.012 A 
ATOM     25  C   UNL     1     -10.421   0.171 -32.084  1.00  0.00     0.157 A 
ATOM     26  C   UNL     1      -8.705   1.810 -31.641  1.00  0.00     0.051 A 
ATOM     27  C   UNL     1      -9.779   1.366 -32.394  1.00  0.00     0.157 A 
BRANCH  25  28
ATOM     28  O   UNL     1     -11.483  -0.199 -32.861  1.00  0.00    -0.504 OA
ATOM     29  H   UNL     1     -12.138   0.521 -32.849  1.00  0.00     0.293 HD
ENDBRANCH  25  28
BRANCH  27  30
ATOM     30  O   UNL     1     -10.213   2.121 -33.446  1.00  0.00    -0.504 OA
ATOM     31  H   UNL     1     -10.963   1.615 -33.818  1.00  0.00     0.293 HD
ENDBRANCH  27  30
ENDBRANCH  21  22
ENDBRANCH  18  20
ENDBRANCH   1  18
TORSDOF 12
ENDMDL
MODEL 10
REMARK VINA RESULT:      -7.5      2.273      3.864
REMARK SMILES O=C(/C=C/c1ccc(O)c(O)c1)O[C@H](Cc1ccc(O)c(O)c1)C(=O)O
REMARK SMILES IDX 13 1 14 2 15 3 16 4 17 5 18 6 19 7 23 8 21 9 20 10 22 12
REMARK SMILES IDX 24 14 25 15 26 16 2 18 1 19 3 20 4 21 5 22 12 23 6 24 10 25
REMARK SMILES IDX 7 26 8 27 11 28 9 30
REMARK H PARENT 20 11 22 13 26 17 11 29 9 31
ROOT
ATOM      1  O   UNL     1      -6.663  -0.451 -31.548  1.00  0.00    -0.447 OA
ENDROOT
BRANCH   1   2
ATOM      2  C   UNL     1      -7.109  -1.029 -30.309  1.00  0.00     0.290 C 
BRANCH   2   3
ATOM      3  C   UNL     1      -6.005  -1.968 -29.792  1.00  0.00     0.093 C 
BRANCH   3   4
ATOM      4  C   UNL     1      -4.802  -1.223 -29.252  1.00  0.00    -0.040 A 
ATOM      5  C   UNL     1      -3.642  -1.088 -30.035  1.00  0.00     0.008 A 
ATOM      6  C   UNL     1      -2.528  -0.392 -29.553  1.00  0.00     0.050 A 
ATOM      7  C   UNL     1      -2.578   0.172 -28.286  1.00  0.00     0.157 A 
ATOM      8  C   UNL     1      -4.826  -0.661 -27.967  1.00  0.00     0.054 A 
ATOM      9  C   UNL     1      -3.720   0.037 -27.502  1.00  0.00     0.157 A 
BRANCH   7  10
ATOM     10  O   UNL     1      -1.526   0.872 -27.762  1.00  0.00    -0.504 OA
ATOM     11  H   UNL     1      -0.766   0.267 -27.692  1.00  0.00     0.293 HD
ENDBRANCH   7  10
BRANCH   9  12
ATOM     12  O   UNL     1      -3.763   0.596 -26.257  1.00  0.00    -0.504 OA
ATOM     13  H   UNL     1      -3.378  -0.084 -25.669  1.00  0.00     0.293 HD
ENDBRANCH   9  12
ENDBRANCH   3   4
ENDBRANCH   2   3
BRANCH   2  14
ATOM     14  C   UNL     1      -8.415  -1.817 -30.482  1.00  0.00     0.345 C 
ATOM     15  O   UNL     1      -9.412  -1.668 -29.790  1.00  0.00    -0.248 OA
BRANCH  14  16
ATOM     16  O   UNL     1      -8.388  -2.713 -31.498  1.00  0.00    -0.478 OA
ATOM     17  H   UNL     1      -8.528  -3.650 -31.216  1.00  0.00     0.296 HD
ENDBRANCH  14  16
ENDBRANCH   2  14
ENDBRANCH   1   2
BRANCH   1  18
ATOM     18  C   UNL     1      -6.995   0.847 -31.726  1.00  0.00     0.331 C 
ATOM     19  O   UNL     1      -8.071   1.242 -32.148  1.00  0.00    -0.247 OA
BRANCH  18  20
ATOM     20  C   UNL     1      -5.835   1.688 -31.388  1.00  0.00     0.094 C 
ATOM     21  C   UNL     1      -5.930   2.590 -30.401  1.00  0.00     0.016 C 
BRANCH  21  22
ATOM     22  C   UNL     1      -4.830   3.482 -30.014  1.00  0.00    -0.021 A 
ATOM     23  C   UNL     1      -4.501   4.618 -30.772  1.00  0.00     0.058 A 
ATOM     24  C   UNL     1      -4.135   3.226 -28.821  1.00  0.00     0.012 A 
ATOM     25  C   UNL     1      -3.479   5.458 -30.343  1.00  0.00     0.157 A 
ATOM     26  C   UNL     1      -3.107   4.074 -28.400  1.00  0.00     0.051 A 
ATOM     27  C   UNL     1      -2.787   5.183 -29.166  1.00  0.00     0.157 A 
BRANCH  25  28
ATOM     28  O   UNL     1      -3.120   6.577 -31.041  1.00  0.00    -0.504 OA
ATOM     29  H   UNL     1      -2.674   6.298 -31.859  1.00  0.00     0.293 HD
ENDBRANCH  25  28
BRANCH  27  30
ATOM     30  O   UNL     1      -1.788   6.015 -28.751  1.00  0.00    -0.504 OA
ATOM     31  H   UNL     1      -1.840   6.781 -29.356  1.00  0.00     0.293 HD
ENDBRANCH  27  30
ENDBRANCH  21  22
ENDBRANCH  18  20
ENDBRANCH   1  18
TORSDOF 12
ENDMDL
