MODEL 1
REMARK VINA RESULT:      -8.1      0.000      0.000
REMARK SMILES O=C(C=Cc1ccc(O)c(O)c1)O[C@@H](Cc1ccc(O)c(O)c1)C(=O)O
REMARK SMILES IDX 13 1 14 2 15 3 16 4 17 5 18 6 19 7 23 8 21 9 20 10 22 12
REMARK SMILES IDX 24 14 25 15 26 16 2 18 1 19 3 20 4 21 5 22 12 23 6 24 10 25
REMARK SMILES IDX 7 26 8 27 11 28 9 30
REMARK H PARENT 20 11 22 13 26 17 11 29 9 31
ROOT
ATOM      1  O   UNL     1      -9.029  -1.361 -32.430  1.00  0.00    -0.447 OA
ENDROOT
BRANCH   1   2
ATOM      2  C   UNL     1      -9.321   0.039 -32.216  1.00  0.00     0.290 C 
BRANCH   2   3
ATOM      3  C   UNL     1      -8.359   0.952 -32.992  1.00  0.00     0.093 C 
BRANCH   3   4
ATOM      4  C   UNL     1      -7.164   1.408 -32.181  1.00  0.00    -0.040 A 
ATOM      5  C   UNL     1      -7.343   2.192 -31.028  1.00  0.00     0.008 A 
ATOM      6  C   UNL     1      -6.244   2.647 -30.293  1.00  0.00     0.050 A 
ATOM      7  C   UNL     1      -4.963   2.317 -30.715  1.00  0.00     0.157 A 
ATOM      8  C   UNL     1      -5.863   1.078 -32.586  1.00  0.00     0.054 A 
ATOM      9  C   UNL     1      -4.778   1.539 -31.855  1.00  0.00     0.157 A 
BRANCH   7  10
ATOM     10  O   UNL     1      -3.849   2.736 -30.044  1.00  0.00    -0.504 OA
ATOM     11  H   UNL     1      -3.944   2.478 -29.111  1.00  0.00     0.293 HD
ENDBRANCH   7  10
BRANCH   9  12
ATOM     12  O   UNL     1      -3.516   1.225 -32.270  1.00  0.00    -0.504 OA
ATOM     13  H   UNL     1      -3.269   1.956 -32.873  1.00  0.00     0.293 HD
ENDBRANCH   9  12
ENDBRANCH   3   4
ENDBRANCH   2   3
BRANCH   2  14
ATOM     14  C   UNL     1     -10.764   0.311 -32.631  1.00  0.00     0.345 C 
ATOM     15  O   UNL     1     -11.640  -0.541 -32.677  1.00  0.00    -0.248 OA
BRANCH  14  16
ATOM     16  O   UNL     1     -11.000   1.610 -32.940  1.00  0.00    -0.478 OA
ATOM     17  H   UNL     1     -10.149   2.080 -33.076  1.00  0.00     0.296 HD
ENDBRANCH  14  16
ENDBRANCH   2  14
ENDBRANCH   1   2
BRANCH   1  18
ATOM     18  C   UNL     1      -8.868  -2.085 -31.293  1.00  0.00     0.331 C 
ATOM     19  O   UNL     1      -9.452  -3.115 -31.007  1.00  0.00    -0.247 OA
BRANCH  18  20
ATOM     20  C   UNL     1      -7.869  -1.402 -30.450  1.00  0.00     0.094 C 
ATOM     21  C   UNL     1      -6.627  -1.901 -30.358  1.00  0.00     0.016 C 
BRANCH  21  22
ATOM     22  C   UNL     1      -5.561  -1.291 -29.551  1.00  0.00    -0.021 A 
ATOM     23  C   UNL     1      -5.920  -0.496 -28.451  1.00  0.00     0.058 A 
ATOM     24  C   UNL     1      -4.201  -1.436 -29.879  1.00  0.00     0.012 A 
ATOM     25  C   UNL     1      -4.928   0.110 -27.686  1.00  0.00     0.157 A 
ATOM     26  C   UNL     1      -3.212  -0.824 -29.104  1.00  0.00     0.051 A 
ATOM     27  C   UNL     1      -3.586  -0.059 -28.011  1.00  0.00     0.157 A 
BRANCH  25  28
ATOM     28  O   UNL     1      -5.226   0.887 -26.600  1.00  0.00    -0.504 OA
ATOM     29  H   UNL     1      -6.189   0.867 -26.465  1.00  0.00     0.293 HD
ENDBRANCH  25  28
BRANCH  27  30
ATOM     30  O   UNL     1      -2.620   0.541 -27.255  1.00  0.00    -0.504 OA
ATOM     31  H   UNL     1      -1.895  -0.114 -27.219  1.00  0.00     0.293 HD
ENDBRANCH  27  30
ENDBRANCH  21  22
ENDBRANCH  18  20
ENDBRANCH   1  18
TORSDOF 12
ENDMDL
MODEL 2
REMARK VINA RESULT:      -7.9      1.789      3.591
REMARK SMILES O=C(C=Cc1ccc(O)c(O)c1)O[C@@H](Cc1ccc(O)c(O)c1)C(=O)O
REMARK SMILES IDX 13 1 14 2 15 3 16 4 17 5 18 6 19 7 23 8 21 9 20 10 22 12
REMARK SMILES IDX 24 14 25 15 26 16 2 18 1 19 3 20 4 21 5 22 12 23 6 24 10 25
REMARK SMILES IDX 7 26 8 27 11 28 9 30
REMARK H PARENT 20 11 22 13 26 17 11 29 9 31
ROOT
ATOM      1  O   UNL     1      -8.501   1.542 -32.181  1.00  0.00    -0.447 OA
ENDROOT
BRANCH   1   2
ATOM      2  C   UNL     1      -9.312   0.345 -32.169  1.00  0.00     0.290 C 
BRANCH   2   3
ATOM      3  C   UNL     1      -9.723  -0.057 -30.744  1.00  0.00     0.093 C 
BRANCH   3   4
ATOM      4  C   UNL     1      -8.609  -0.703 -29.948  1.00  0.00    -0.040 A 
ATOM      5  C   UNL     1      -8.062  -1.933 -30.355  1.00  0.00     0.008 A 
ATOM      6  C   UNL     1      -7.057  -2.554 -29.607  1.00  0.00     0.050 A 
ATOM      7  C   UNL     1      -6.601  -1.942 -28.446  1.00  0.00     0.157 A 
ATOM      8  C   UNL     1      -8.129  -0.098 -28.778  1.00  0.00     0.054 A 
ATOM      9  C   UNL     1      -7.137  -0.724 -28.037  1.00  0.00     0.157 A 
BRANCH   7  10
ATOM     10  O   UNL     1      -5.627  -2.502 -27.668  1.00  0.00    -0.504 OA
ATOM     11  H   UNL     1      -4.870  -1.890 -27.646  1.00  0.00     0.293 HD
ENDBRANCH   7  10
BRANCH   9  12
ATOM     12  O   UNL     1      -6.690  -0.131 -26.892  1.00  0.00    -0.504 OA
ATOM     13  H   UNL     1      -5.717  -0.232 -26.929  1.00  0.00     0.293 HD
ENDBRANCH   9  12
ENDBRANCH   3   4
ENDBRANCH   2   3
BRANCH   2  14
ATOM     14  C   UNL     1     -10.547   0.578 -33.034  1.00  0.00     0.345 C 
ATOM     15  O   UNL     1     -11.104  -0.291 -33.689  1.00  0.00    -0.248 OA
BRANCH  14  16
ATOM     16  O   UNL     1     -10.991   1.859 -33.004  1.00  0.00    -0.478 OA
ATOM     17  H   UNL     1     -10.231   2.477 -33.064  1.00  0.00     0.296 HD
ENDBRANCH  14  16
ENDBRANCH   2  14
ENDBRANCH   1   2
BRANCH   1  18
ATOM     18  C   UNL     1      -7.302   1.407 -32.802  1.00  0.00     0.331 C 
ATOM     19  O   UNL     1      -7.125   1.156 -33.980  1.00  0.00    -0.247 OA
BRANCH  18  20
ATOM     20  C   UNL     1      -6.239   1.602 -31.797  1.00  0.00     0.094 C 
ATOM     21  C   UNL     1      -5.552   0.542 -31.343  1.00  0.00     0.016 C 
BRANCH  21  22
ATOM     22  C   UNL     1      -4.473   0.633 -30.351  1.00  0.00    -0.021 A 
ATOM     23  C   UNL     1      -4.357   1.807 -29.588  1.00  0.00     0.058 A 
ATOM     24  C   UNL     1      -3.526  -0.392 -30.181  1.00  0.00     0.012 A 
ATOM     25  C   UNL     1      -3.329   1.925 -28.658  1.00  0.00     0.157 A 
ATOM     26  C   UNL     1      -2.497  -0.265 -29.243  1.00  0.00     0.051 A 
ATOM     27  C   UNL     1      -2.411   0.893 -28.487  1.00  0.00     0.157 A 
BRANCH  25  28
ATOM     28  O   UNL     1      -3.177   3.044 -27.886  1.00  0.00    -0.504 OA
ATOM     29  H   UNL     1      -3.675   3.770 -28.299  1.00  0.00     0.293 HD
ENDBRANCH  25  28
BRANCH  27  30
ATOM     30  O   UNL     1      -1.405   1.019 -27.573  1.00  0.00    -0.504 OA
ATOM     31  H   UNL     1      -0.801   0.275 -27.768  1.00  0.00     0.293 HD
ENDBRANCH  27  30
ENDBRANCH  21  22
ENDBRANCH  18  20
ENDBRANCH   1  18
TORSDOF 12
ENDMDL
MODEL 3
REMARK VINA RESULT:      -7.8      1.814      6.946
REMARK SMILES O=C(C=Cc1ccc(O)c(O)c1)O[C@@H](Cc1ccc(O)c(O)c1)C(=O)O
REMARK SMILES IDX 13 1 14 2 15 3 16 4 17 5 18 6 19 7 23 8 21 9 20 10 22 12
REMARK SMILES IDX 24 14 25 15 26 16 2 18 1 19 3 20 4 21 5 22 12 23 6 24 10 25
REMARK SMILES IDX 7 26 8 27 11 28 9 30
REMARK H PARENT 20 11 22 13 26 17 11 29 9 31
ROOT
ATOM      1  O   UNL     1      -4.432   1.020 -29.697  1.00  0.00    -0.447 OA
ENDROOT
BRANCH   1   2
ATOM      2  C   UNL     1      -3.005   0.824 -29.815  1.00  0.00     0.290 C 
BRANCH   2   3
ATOM      3  C   UNL     1      -2.401   0.211 -28.542  1.00  0.00     0.093 C 
BRANCH   3   4
ATOM      4  C   UNL     1      -3.434  -0.344 -27.584  1.00  0.00    -0.040 A 
ATOM      5  C   UNL     1      -4.073  -1.568 -27.856  1.00  0.00     0.008 A 
ATOM      6  C   UNL     1      -5.053  -2.071 -26.995  1.00  0.00     0.050 A 
ATOM      7  C   UNL     1      -5.397  -1.346 -25.862  1.00  0.00     0.157 A 
ATOM      8  C   UNL     1      -3.789   0.368 -26.431  1.00  0.00     0.054 A 
ATOM      9  C   UNL     1      -4.768  -0.135 -25.586  1.00  0.00     0.157 A 
BRANCH   7  10
ATOM     10  O   UNL     1      -6.351  -1.781 -24.986  1.00  0.00    -0.504 OA
ATOM     11  H   UNL     1      -6.034  -1.606 -24.083  1.00  0.00     0.293 HD
ENDBRANCH   7  10
BRANCH   9  12
ATOM     12  O   UNL     1      -5.115   0.578 -24.474  1.00  0.00    -0.504 OA
ATOM     13  H   UNL     1      -5.070  -0.073 -23.745  1.00  0.00     0.293 HD
ENDBRANCH   9  12
ENDBRANCH   3   4
ENDBRANCH   2   3
BRANCH   2  14
ATOM     14  C   UNL     1      -2.729  -0.071 -31.019  1.00  0.00     0.345 C 
ATOM     15  O   UNL     1      -3.506  -0.913 -31.445  1.00  0.00    -0.248 OA
BRANCH  14  16
ATOM     16  O   UNL     1      -1.524   0.162 -31.598  1.00  0.00    -0.478 OA
ATOM     17  H   UNL     1      -1.386  -0.462 -32.343  1.00  0.00     0.296 HD
ENDBRANCH  14  16
ENDBRANCH   2  14
ENDBRANCH   1   2
BRANCH   1  18
ATOM     18  C   UNL     1      -4.895   2.164 -30.261  1.00  0.00     0.331 C 
ATOM     19  O   UNL     1      -4.294   3.220 -30.345  1.00  0.00    -0.247 OA
BRANCH  18  20
ATOM     20  C   UNL     1      -6.266   1.916 -30.747  1.00  0.00     0.094 C 
ATOM     21  C   UNL     1      -6.640   0.667 -31.068  1.00  0.00     0.016 C 
BRANCH  21  22
ATOM     22  C   UNL     1      -7.982   0.317 -31.552  1.00  0.00    -0.021 A 
ATOM     23  C   UNL     1      -8.802   1.338 -32.059  1.00  0.00     0.058 A 
ATOM     24  C   UNL     1      -8.485  -0.994 -31.475  1.00  0.00     0.012 A 
ATOM     25  C   UNL     1     -10.085   1.033 -32.504  1.00  0.00     0.157 A 
ATOM     26  C   UNL     1      -9.775  -1.290 -31.925  1.00  0.00     0.051 A 
ATOM     27  C   UNL     1     -10.562  -0.272 -32.439  1.00  0.00     0.157 A 
BRANCH  25  28
ATOM     28  O   UNL     1     -10.920   1.989 -33.013  1.00  0.00    -0.504 OA
ATOM     29  H   UNL     1     -11.104   1.770 -33.943  1.00  0.00     0.293 HD
ENDBRANCH  25  28
BRANCH  27  30
ATOM     30  O   UNL     1     -11.823  -0.561 -32.877  1.00  0.00    -0.504 OA
ATOM     31  H   UNL     1     -12.377  -0.521 -32.072  1.00  0.00     0.293 HD
ENDBRANCH  27  30
ENDBRANCH  21  22
ENDBRANCH  18  20
ENDBRANCH   1  18
TORSDOF 12
ENDMDL
MODEL 4
REMARK VINA RESULT:      -7.8      2.552      6.336
REMARK SMILES O=C(C=Cc1ccc(O)c(O)c1)O[C@@H](Cc1ccc(O)c(O)c1)C(=O)O
REMARK SMILES IDX 13 1 14 2 15 3 16 4 17 5 18 6 19 7 23 8 21 9 20 10 22 12
REMARK SMILES IDX 24 14 25 15 26 16 2 18 1 19 3 20 4 21 5 22 12 23 6 24 10 25
REMARK SMILES IDX 7 26 8 27 11 28 9 30
REMARK H PARENT 20 11 22 13 26 17 11 29 9 31
ROOT
ATOM      1  O   UNL     1      -5.919  -0.291 -29.528  1.00  0.00    -0.447 OA
ENDROOT
BRANCH   1   2
ATOM      2  C   UNL     1      -5.453   0.671 -30.502  1.00  0.00     0.290 C 
BRANCH   2   3
ATOM      3  C   UNL     1      -6.516   1.734 -30.815  1.00  0.00     0.093 C 
BRANCH   3   4
ATOM      4  C   UNL     1      -7.688   1.206 -31.616  1.00  0.00    -0.040 A 
ATOM      5  C   UNL     1      -7.572   1.011 -33.004  1.00  0.00     0.008 A 
ATOM      6  C   UNL     1      -8.660   0.557 -33.757  1.00  0.00     0.050 A 
ATOM      7  C   UNL     1      -9.866   0.300 -33.119  1.00  0.00     0.157 A 
ATOM      8  C   UNL     1      -8.911   0.933 -30.989  1.00  0.00     0.054 A 
ATOM      9  C   UNL     1      -9.987   0.489 -31.745  1.00  0.00     0.157 A 
BRANCH   7  10
ATOM     10  O   UNL     1     -10.966  -0.139 -33.800  1.00  0.00    -0.504 OA
ATOM     11  H   UNL     1     -11.581   0.609 -33.894  1.00  0.00     0.293 HD
ENDBRANCH   7  10
BRANCH   9  12
ATOM     12  O   UNL     1     -11.177   0.243 -31.124  1.00  0.00    -0.504 OA
ATOM     13  H   UNL     1     -11.809   0.851 -31.558  1.00  0.00     0.293 HD
ENDBRANCH   9  12
ENDBRANCH   3   4
ENDBRANCH   2   3
BRANCH   2  14
ATOM     14  C   UNL     1      -4.181   1.329 -29.973  1.00  0.00     0.345 C 
ATOM     15  O   UNL     1      -4.165   2.299 -29.229  1.00  0.00    -0.248 OA
BRANCH  14  16
ATOM     16  O   UNL     1      -3.045   0.724 -30.400  1.00  0.00    -0.478 OA
ATOM     17  H   UNL     1      -2.616   1.272 -31.093  1.00  0.00     0.296 HD
ENDBRANCH  14  16
ENDBRANCH   2  14
ENDBRANCH   1   2
BRANCH   1  18
ATOM     18  C   UNL     1      -5.578  -1.577 -29.795  1.00  0.00     0.331 C 
ATOM     19  O   UNL     1      -4.606  -1.948 -30.428  1.00  0.00    -0.247 OA
BRANCH  18  20
ATOM     20  C   UNL     1      -6.599  -2.458 -29.195  1.00  0.00     0.094 C 
ATOM     21  C   UNL     1      -7.741  -2.698 -29.860  1.00  0.00     0.016 C 
BRANCH  21  22
ATOM     22  C   UNL     1      -8.813  -3.565 -29.352  1.00  0.00    -0.021 A 
ATOM     23  C   UNL     1      -9.492  -4.396 -30.257  1.00  0.00     0.058 A 
ATOM     24  C   UNL     1      -9.212  -3.546 -28.004  1.00  0.00     0.012 A 
ATOM     25  C   UNL     1     -10.525  -5.209 -29.803  1.00  0.00     0.157 A 
ATOM     26  C   UNL     1     -10.251  -4.367 -27.557  1.00  0.00     0.051 A 
ATOM     27  C   UNL     1     -10.896  -5.195 -28.462  1.00  0.00     0.157 A 
BRANCH  25  28
ATOM     28  O   UNL     1     -11.212  -6.043 -30.642  1.00  0.00    -0.504 OA
ATOM     29  H   UNL     1     -11.562  -6.784 -30.118  1.00  0.00     0.293 HD
ENDBRANCH  25  28
BRANCH  27  30
ATOM     30  O   UNL     1     -11.912  -5.996 -28.026  1.00  0.00    -0.504 OA
ATOM     31  H   UNL     1     -11.717  -6.148 -27.080  1.00  0.00     0.293 HD
ENDBRANCH  27  30
ENDBRANCH  21  22
ENDBRANCH  18  20
ENDBRANCH   1  18
TORSDOF 12
ENDMDL
MODEL 5
REMARK VINA RESULT:      -7.7      2.341      6.051
REMARK SMILES O=C(C=Cc1ccc(O)c(O)c1)O[C@@H](Cc1ccc(O)c(O)c1)C(=O)O
REMARK SMILES IDX 13 1 14 2 15 3 16 4 17 5 18 6 19 7 23 8 21 9 20 10 22 12
REMARK SMILES IDX 24 14 25 15 26 16 2 18 1 19 3 20 4 21 5 22 12 23 6 24 10 25
REMARK SMILES IDX 7 26 8 27 11 28 9 30
REMARK H PARENT 20 11 22 13 26 17 11 29 9 31
ROOT
ATOM      1  O   UNL     1      -5.415   0.081 -29.465  1.00  0.00    -0.447 OA
ENDROOT
BRANCH   1   2
ATOM      2  C   UNL     1      -5.458   0.010 -30.908  1.00  0.00     0.290 C 
BRANCH   2   3
ATOM      3  C   UNL     1      -6.335   1.117 -31.513  1.00  0.00     0.093 C 
BRANCH   3   4
ATOM      4  C   UNL     1      -7.744   0.667 -31.840  1.00  0.00    -0.040 A 
ATOM      5  C   UNL     1      -8.093  -0.694 -31.768  1.00  0.00     0.008 A 
ATOM      6  C   UNL     1      -9.381  -1.122 -32.103  1.00  0.00     0.050 A 
ATOM      7  C   UNL     1     -10.321  -0.186 -32.513  1.00  0.00     0.157 A 
ATOM      8  C   UNL     1      -8.709   1.597 -32.249  1.00  0.00     0.054 A 
ATOM      9  C   UNL     1      -9.983   1.163 -32.586  1.00  0.00     0.157 A 
BRANCH   7  10
ATOM     10  O   UNL     1     -11.594  -0.542 -32.860  1.00  0.00    -0.504 OA
ATOM     11  H   UNL     1     -12.197  -0.212 -32.172  1.00  0.00     0.293 HD
ENDBRANCH   7  10
BRANCH   9  12
ATOM     12  O   UNL     1     -10.909   2.078 -32.997  1.00  0.00    -0.504 OA
ATOM     13  H   UNL     1     -11.759   1.734 -32.655  1.00  0.00     0.293 HD
ENDBRANCH   9  12
ENDBRANCH   3   4
ENDBRANCH   2   3
BRANCH   2  14
ATOM     14  C   UNL     1      -4.034   0.104 -31.448  1.00  0.00     0.345 C 
ATOM     15  O   UNL     1      -3.263  -0.842 -31.529  1.00  0.00    -0.248 OA
BRANCH  14  16
ATOM     16  O   UNL     1      -3.693   1.353 -31.852  1.00  0.00    -0.478 OA
ATOM     17  H   UNL     1      -4.476   1.806 -32.232  1.00  0.00     0.296 HD
ENDBRANCH  14  16
ENDBRANCH   2  14
ENDBRANCH   1   2
BRANCH   1  18
ATOM     18  C   UNL     1      -5.054  -1.075 -28.851  1.00  0.00     0.331 C 
ATOM     19  O   UNL     1      -4.071  -1.242 -28.152  1.00  0.00    -0.247 OA
BRANCH  18  20
ATOM     20  C   UNL     1      -6.053  -2.107 -29.190  1.00  0.00     0.094 C 
ATOM     21  C   UNL     1      -7.195  -2.179 -28.488  1.00  0.00     0.016 C 
BRANCH  21  22
ATOM     22  C   UNL     1      -8.253  -3.164 -28.752  1.00  0.00    -0.021 A 
ATOM     23  C   UNL     1      -9.285  -3.312 -27.812  1.00  0.00     0.058 A 
ATOM     24  C   UNL     1      -8.232  -3.996 -29.886  1.00  0.00     0.012 A 
ATOM     25  C   UNL     1     -10.286  -4.253 -28.030  1.00  0.00     0.157 A 
ATOM     26  C   UNL     1      -9.243  -4.939 -30.096  1.00  0.00     0.051 A 
ATOM     27  C   UNL     1     -10.263  -5.056 -29.167  1.00  0.00     0.157 A 
BRANCH  25  28
ATOM     28  O   UNL     1     -11.317  -4.430 -27.149  1.00  0.00    -0.504 OA
ATOM     29  H   UNL     1     -11.507  -3.576 -26.724  1.00  0.00     0.293 HD
ENDBRANCH  25  28
BRANCH  27  30
ATOM     30  O   UNL     1     -11.249  -5.978 -29.371  1.00  0.00    -0.504 OA
ATOM     31  H   UNL     1     -11.430  -6.345 -28.484  1.00  0.00     0.293 HD
ENDBRANCH  27  30
ENDBRANCH  21  22
ENDBRANCH  18  20
ENDBRANCH   1  18
TORSDOF 12
ENDMDL
MODEL 6
REMARK VINA RESULT:      -7.4      1.489      6.761
REMARK SMILES O=C(C=Cc1ccc(O)c(O)c1)O[C@@H](Cc1ccc(O)c(O)c1)C(=O)O
REMARK SMILES IDX 13 1 14 2 15 3 16 4 17 5 18 6 19 7 23 8 21 9 20 10 22 12
REMARK SMILES IDX 24 14 25 15 26 16 2 18 1 19 3 20 4 21 5 22 12 23 6 24 10 25
REMARK SMILES IDX 7 26 8 27 11 28 9 30
REMARK H PARENT 20 11 22 13 26 17 11 29 9 31
ROOT
ATOM      1  O   UNL     1      -4.135   1.737 -30.231  1.00  0.00    -0.447 OA
ENDROOT
BRANCH   1   2
ATOM      2  C   UNL     1      -4.168   1.309 -28.851  1.00  0.00     0.290 C 
BRANCH   2   3
ATOM      3  C   UNL     1      -4.287  -0.218 -28.724  1.00  0.00     0.093 C 
BRANCH   3   4
ATOM      4  C   UNL     1      -5.711  -0.726 -28.803  1.00  0.00    -0.040 A 
ATOM      5  C   UNL     1      -6.697  -0.223 -27.935  1.00  0.00     0.008 A 
ATOM      6  C   UNL     1      -8.006  -0.712 -27.977  1.00  0.00     0.050 A 
ATOM      7  C   UNL     1      -8.328  -1.709 -28.889  1.00  0.00     0.157 A 
ATOM      8  C   UNL     1      -6.059  -1.726 -29.722  1.00  0.00     0.054 A 
ATOM      9  C   UNL     1      -7.358  -2.211 -29.752  1.00  0.00     0.157 A 
BRANCH   7  10
ATOM     10  O   UNL     1      -9.588  -2.233 -28.974  1.00  0.00    -0.504 OA
ATOM     11  H   UNL     1      -9.645  -2.746 -29.798  1.00  0.00     0.293 HD
ENDBRANCH   7  10
BRANCH   9  12
ATOM     12  O   UNL     1      -7.679  -3.196 -30.641  1.00  0.00    -0.504 OA
ATOM     13  H   UNL     1      -6.999  -3.886 -30.495  1.00  0.00     0.293 HD
ENDBRANCH   9  12
ENDBRANCH   3   4
ENDBRANCH   2   3
BRANCH   2  14
ATOM     14  C   UNL     1      -2.906   1.804 -28.151  1.00  0.00     0.345 C 
ATOM     15  O   UNL     1      -1.952   1.094 -27.866  1.00  0.00    -0.248 OA
BRANCH  14  16
ATOM     16  O   UNL     1      -2.928   3.132 -27.877  1.00  0.00    -0.478 OA
ATOM     17  H   UNL     1      -3.037   3.272 -26.911  1.00  0.00     0.296 HD
ENDBRANCH  14  16
ENDBRANCH   2  14
ENDBRANCH   1   2
BRANCH   1  18
ATOM     18  C   UNL     1      -4.847   2.862 -30.492  1.00  0.00     0.331 C 
ATOM     19  O   UNL     1      -4.427   4.005 -30.453  1.00  0.00    -0.247 OA
BRANCH  18  20
ATOM     20  C   UNL     1      -6.230   2.467 -30.820  1.00  0.00     0.094 C 
ATOM     21  C   UNL     1      -6.448   1.544 -31.771  1.00  0.00     0.016 C 
BRANCH  21  22
ATOM     22  C   UNL     1      -7.785   1.079 -32.164  1.00  0.00    -0.021 A 
ATOM     23  C   UNL     1      -8.745   0.867 -31.162  1.00  0.00     0.058 A 
ATOM     24  C   UNL     1      -8.111   0.790 -33.500  1.00  0.00     0.012 A 
ATOM     25  C   UNL     1     -10.011   0.406 -31.508  1.00  0.00     0.157 A 
ATOM     26  C   UNL     1      -9.386   0.327 -33.838  1.00  0.00     0.051 A 
ATOM     27  C   UNL     1     -10.326   0.143 -32.838  1.00  0.00     0.157 A 
BRANCH  25  28
ATOM     28  O   UNL     1     -10.985   0.192 -30.571  1.00  0.00    -0.504 OA
ATOM     29  H   UNL     1     -11.452   1.031 -30.418  1.00  0.00     0.293 HD
ENDBRANCH  25  28
BRANCH  27  30
ATOM     30  O   UNL     1     -11.571  -0.311 -33.168  1.00  0.00    -0.504 OA
ATOM     31  H   UNL     1     -11.928   0.369 -33.773  1.00  0.00     0.293 HD
ENDBRANCH  27  30
ENDBRANCH  21  22
ENDBRANCH  18  20
ENDBRANCH   1  18
TORSDOF 12
ENDMDL
MODEL 7
REMARK VINA RESULT:      -7.4      2.863      6.743
REMARK SMILES O=C(C=Cc1ccc(O)c(O)c1)O[C@@H](Cc1ccc(O)c(O)c1)C(=O)O
REMARK SMILES IDX 13 1 14 2 15 3 16 4 17 5 18 6 19 7 23 8 21 9 20 10 22 12
REMARK SMILES IDX 24 14 25 15 26 16 2 18 1 19 3 20 4 21 5 22 12 23 6 24 10 25
REMARK SMILES IDX 7 26 8 27 11 28 9 30
REMARK H PARENT 20 11 22 13 26 17 11 29 9 31
ROOT
ATOM      1  O   UNL     1      -5.833  -1.480 -30.705  1.00  0.00    -0.447 OA
ENDROOT
BRANCH   1   2
ATOM      2  C   UNL     1      -5.005  -0.665 -29.844  1.00  0.00     0.290 C 
BRANCH   2   3
ATOM      3  C   UNL     1      -4.533  -1.437 -28.602  1.00  0.00     0.093 C 
BRANCH   3   4
ATOM      4  C   UNL     1      -5.257  -1.046 -27.331  1.00  0.00    -0.040 A 
ATOM      5  C   UNL     1      -6.648  -1.224 -27.219  1.00  0.00     0.008 A 
ATOM      6  C   UNL     1      -7.329  -0.834 -26.062  1.00  0.00     0.050 A 
ATOM      7  C   UNL     1      -6.617  -0.261 -25.016  1.00  0.00     0.157 A 
ATOM      8  C   UNL     1      -4.555  -0.475 -26.261  1.00  0.00     0.054 A 
ATOM      9  C   UNL     1      -5.240  -0.083 -25.120  1.00  0.00     0.157 A 
BRANCH   7  10
ATOM     10  O   UNL     1      -7.226   0.147 -23.863  1.00  0.00    -0.504 OA
ATOM     11  H   UNL     1      -8.134  -0.201 -23.863  1.00  0.00     0.293 HD
ENDBRANCH   7  10
BRANCH   9  12
ATOM     12  O   UNL     1      -4.546   0.487 -24.092  1.00  0.00    -0.504 OA
ATOM     13  H   UNL     1      -4.302  -0.266 -23.516  1.00  0.00     0.293 HD
ENDBRANCH   9  12
ENDBRANCH   3   4
ENDBRANCH   2   3
BRANCH   2  14
ATOM     14  C   UNL     1      -3.808  -0.162 -30.645  1.00  0.00     0.345 C 
ATOM     15  O   UNL     1      -3.308  -0.759 -31.588  1.00  0.00    -0.248 OA
BRANCH  14  16
ATOM     16  O   UNL     1      -3.342   1.039 -30.219  1.00  0.00    -0.478 OA
ATOM     17  H   UNL     1      -2.744   1.423 -30.895  1.00  0.00     0.296 HD
ENDBRANCH  14  16
ENDBRANCH   2  14
ENDBRANCH   1   2
BRANCH   1  18
ATOM     18  C   UNL     1      -6.997  -0.896 -31.088  1.00  0.00     0.331 C 
ATOM     19  O   UNL     1      -7.110   0.124 -31.744  1.00  0.00    -0.247 OA
BRANCH  18  20
ATOM     20  C   UNL     1      -8.113  -1.705 -30.561  1.00  0.00     0.094 C 
ATOM     21  C   UNL     1      -7.865  -2.917 -30.041  1.00  0.00     0.016 C 
BRANCH  21  22
ATOM     22  C   UNL     1      -8.905  -3.794 -29.484  1.00  0.00    -0.021 A 
ATOM     23  C   UNL     1      -9.694  -4.548 -30.368  1.00  0.00     0.058 A 
ATOM     24  C   UNL     1      -9.166  -3.858 -28.104  1.00  0.00     0.012 A 
ATOM     25  C   UNL     1     -10.699  -5.368 -29.865  1.00  0.00     0.157 A 
ATOM     26  C   UNL     1     -10.178  -4.686 -27.609  1.00  0.00     0.051 A 
ATOM     27  C   UNL     1     -10.933  -5.437 -28.495  1.00  0.00     0.157 A 
BRANCH  25  28
ATOM     28  O   UNL     1     -11.489  -6.128 -30.683  1.00  0.00    -0.504 OA
ATOM     29  H   UNL     1     -12.241  -6.458 -30.161  1.00  0.00     0.293 HD
ENDBRANCH  25  28
BRANCH  27  30
ATOM     30  O   UNL     1     -11.922  -6.244 -28.011  1.00  0.00    -0.504 OA
ATOM     31  H   UNL     1     -11.989  -6.968 -28.664  1.00  0.00     0.293 HD
ENDBRANCH  27  30
ENDBRANCH  21  22
ENDBRANCH  18  20
ENDBRANCH   1  18
TORSDOF 12
ENDMDL
MODEL 8
REMARK VINA RESULT:      -7.3      1.944      4.322
REMARK SMILES O=C(C=Cc1ccc(O)c(O)c1)O[C@@H](Cc1ccc(O)c(O)c1)C(=O)O
REMARK SMILES IDX 13 1 14 2 15 3 16 4 17 5 18 6 19 7 23 8 21 9 20 10 22 12
REMARK SMILES IDX 24 14 25 15 26 16 2 18 1 19 3 20 4 21 5 22 12 23 6 24 10 25
REMARK SMILES IDX 7 26 8 27 11 28 9 30
REMARK H PARENT 20 11 22 13 26 17 11 29 9 31
ROOT
ATOM      1  O   UNL     1      -8.849   1.668 -31.837  1.00  0.00    -0.447 OA
ENDROOT
BRANCH   1   2
ATOM      2  C   UNL     1      -9.621   0.463 -32.042  1.00  0.00     0.290 C 
BRANCH   2   3
ATOM      3  C   UNL     1     -10.432   0.080 -30.795  1.00  0.00     0.093 C 
BRANCH   3   4
ATOM      4  C   UNL     1      -9.900  -1.140 -30.073  1.00  0.00    -0.040 A 
ATOM      5  C   UNL     1      -9.704  -1.116 -28.681  1.00  0.00     0.008 A 
ATOM      6  C   UNL     1      -9.181  -2.227 -28.011  1.00  0.00     0.050 A 
ATOM      7  C   UNL     1      -8.850  -3.362 -28.739  1.00  0.00     0.157 A 
ATOM      8  C   UNL     1      -9.568  -2.299 -30.788  1.00  0.00     0.054 A 
ATOM      9  C   UNL     1      -9.042  -3.394 -30.117  1.00  0.00     0.157 A 
BRANCH   7  10
ATOM     10  O   UNL     1      -8.328  -4.477 -28.144  1.00  0.00    -0.504 OA
ATOM     11  H   UNL     1      -8.429  -5.223 -28.760  1.00  0.00     0.293 HD
ENDBRANCH   7  10
BRANCH   9  12
ATOM     12  O   UNL     1      -8.708  -4.510 -30.828  1.00  0.00    -0.504 OA
ATOM     13  H   UNL     1      -8.771  -4.230 -31.764  1.00  0.00     0.293 HD
ENDBRANCH   9  12
ENDBRANCH   3   4
ENDBRANCH   2   3
BRANCH   2  14
ATOM     14  C   UNL     1     -10.547   0.668 -33.237  1.00  0.00     0.345 C 
ATOM     15  O   UNL     1     -10.906  -0.224 -33.993  1.00  0.00    -0.248 OA
BRANCH  14  16
ATOM     16  O   UNL     1     -10.957   1.952 -33.386  1.00  0.00    -0.478 OA
ATOM     17  H   UNL     1     -11.415   2.058 -34.247  1.00  0.00     0.296 HD
ENDBRANCH  14  16
ENDBRANCH   2  14
ENDBRANCH   1   2
BRANCH   1  18
ATOM     18  C   UNL     1      -7.586   1.623 -32.332  1.00  0.00     0.331 C 
ATOM     19  O   UNL     1      -7.272   1.656 -33.508  1.00  0.00    -0.247 OA
BRANCH  18  20
ATOM     20  C   UNL     1      -6.651   1.512 -31.196  1.00  0.00     0.094 C 
ATOM     21  C   UNL     1      -5.357   1.242 -31.427  1.00  0.00     0.016 C 
BRANCH  21  22
ATOM     22  C   UNL     1      -4.347   1.119 -30.367  1.00  0.00    -0.021 A 
ATOM     23  C   UNL     1      -4.065   2.242 -29.572  1.00  0.00     0.058 A 
ATOM     24  C   UNL     1      -3.622  -0.068 -30.160  1.00  0.00     0.012 A 
ATOM     25  C   UNL     1      -3.098   2.156 -28.576  1.00  0.00     0.157 A 
ATOM     26  C   UNL     1      -2.652  -0.145 -29.156  1.00  0.00     0.051 A 
ATOM     27  C   UNL     1      -2.402   0.969 -28.371  1.00  0.00     0.157 A 
BRANCH  25  28
ATOM     28  O   UNL     1      -2.792   3.218 -27.771  1.00  0.00    -0.504 OA
ATOM     29  H   UNL     1      -3.623   3.639 -27.490  1.00  0.00     0.293 HD
ENDBRANCH  25  28
BRANCH  27  30
ATOM     30  O   UNL     1      -1.454   0.894 -27.391  1.00  0.00    -0.504 OA
ATOM     31  H   UNL     1      -1.656   1.643 -26.796  1.00  0.00     0.293 HD
ENDBRANCH  27  30
ENDBRANCH  21  22
ENDBRANCH  18  20
ENDBRANCH   1  18
TORSDOF 12
ENDMDL
MODEL 9
REMARK VINA RESULT:      -7.3      2.093      6.798
REMARK SMILES O=C(C=Cc1ccc(O)c(O)c1)O[C@@H](Cc1ccc(O)c(O)c1)C(=O)O
REMARK SMILES IDX 13 1 14 2 15 3 16 4 17 5 18 6 19 7 23 8 21 9 20 10 22 12
REMARK SMILES IDX 24 14 25 15 26 16 2 18 1 19 3 20 4 21 5 22 12 23 6 24 10 25
REMARK SMILES IDX 7 26 8 27 11 28 9 30
REMARK H PARENT 20 11 22 13 26 17 11 29 9 31
ROOT
ATOM      1  O   UNL     1      -2.996   0.538 -30.010  1.00  0.00    -0.447 OA
ENDROOT
BRANCH   1   2
ATOM      2  C   UNL     1      -3.652   1.094 -28.848  1.00  0.00     0.290 C 
BRANCH   2   3
ATOM      3  C   UNL     1      -3.274   0.345 -27.561  1.00  0.00     0.093 C 
BRANCH   3   4
ATOM      4  C   UNL     1      -4.467  -0.086 -26.734  1.00  0.00    -0.040 A 
ATOM      5  C   UNL     1      -4.492   0.140 -25.346  1.00  0.00     0.008 A 
ATOM      6  C   UNL     1      -5.574  -0.287 -24.570  1.00  0.00     0.050 A 
ATOM      7  C   UNL     1      -6.632  -0.943 -25.185  1.00  0.00     0.157 A 
ATOM      8  C   UNL     1      -5.548  -0.743 -27.338  1.00  0.00     0.054 A 
ATOM      9  C   UNL     1      -6.615  -1.169 -26.559  1.00  0.00     0.157 A 
BRANCH   7  10
ATOM     10  O   UNL     1      -7.715  -1.390 -24.481  1.00  0.00    -0.504 OA
ATOM     11  H   UNL     1      -8.513  -0.997 -24.874  1.00  0.00     0.293 HD
ENDBRANCH   7  10
BRANCH   9  12
ATOM     12  O   UNL     1      -7.654  -1.822 -27.157  1.00  0.00    -0.504 OA
ATOM     13  H   UNL     1      -8.452  -1.354 -26.836  1.00  0.00     0.293 HD
ENDBRANCH   9  12
ENDBRANCH   3   4
ENDBRANCH   2   3
BRANCH   2  14
ATOM     14  C   UNL     1      -3.284   2.570 -28.732  1.00  0.00     0.345 C 
ATOM     15  O   UNL     1      -2.594   3.041 -27.839  1.00  0.00    -0.248 OA
BRANCH  14  16
ATOM     16  O   UNL     1      -3.788   3.331 -29.736  1.00  0.00    -0.478 OA
ATOM     17  H   UNL     1      -4.622   3.757 -29.444  1.00  0.00     0.296 HD
ENDBRANCH  14  16
ENDBRANCH   2  14
ENDBRANCH   1   2
BRANCH   1  18
ATOM     18  C   UNL     1      -3.731  -0.376 -30.693  1.00  0.00     0.331 C 
ATOM     19  O   UNL     1      -3.464  -1.556 -30.832  1.00  0.00    -0.247 OA
BRANCH  18  20
ATOM     20  C   UNL     1      -4.910   0.310 -31.255  1.00  0.00     0.094 C 
ATOM     21  C   UNL     1      -6.132  -0.213 -31.069  1.00  0.00     0.016 C 
BRANCH  21  22
ATOM     22  C   UNL     1      -7.367   0.397 -31.582  1.00  0.00    -0.021 A 
ATOM     23  C   UNL     1      -8.591   0.030 -31.000  1.00  0.00     0.058 A 
ATOM     24  C   UNL     1      -7.362   1.292 -32.666  1.00  0.00     0.012 A 
ATOM     25  C   UNL     1      -9.775   0.578 -31.483  1.00  0.00     0.157 A 
ATOM     26  C   UNL     1      -8.557   1.837 -33.144  1.00  0.00     0.051 A 
ATOM     27  C   UNL     1      -9.753   1.478 -32.545  1.00  0.00     0.157 A 
BRANCH  25  28
ATOM     28  O   UNL     1     -10.992   0.260 -30.946  1.00  0.00    -0.504 OA
ATOM     29  H   UNL     1     -11.646   0.903 -31.268  1.00  0.00     0.293 HD
ENDBRANCH  25  28
BRANCH  27  30
ATOM     30  O   UNL     1     -10.920   2.009 -33.013  1.00  0.00    -0.504 OA
ATOM     31  H   UNL     1     -10.704   2.320 -33.915  1.00  0.00     0.293 HD
ENDBRANCH  27  30
ENDBRANCH  21  22
ENDBRANCH  18  20
ENDBRANCH   1  18
TORSDOF 12
ENDMDL
MODEL 10
REMARK VINA RESULT:      -7.2      2.095      6.374
REMARK SMILES O=C(C=Cc1ccc(O)c(O)c1)O[C@@H](Cc1ccc(O)c(O)c1)C(=O)O
REMARK SMILES IDX 13 1 14 2 15 3 16 4 17 5 18 6 19 7 23 8 21 9 20 10 22 12
REMARK SMILES IDX 24 14 25 15 26 16 2 18 1 19 3 20 4 21 5 22 12 23 6 24 10 25
REMARK SMILES IDX 7 26 8 27 11 28 9 30
REMARK H PARENT 20 11 22 13 26 17 11 29 9 31
ROOT
ATOM      1  O   UNL     1      -6.940  -0.414 -26.675  1.00  0.00    -0.447 OA
ENDROOT
BRANCH   1   2
ATOM      2  C   UNL     1      -5.835  -1.003 -25.952  1.00  0.00     0.290 C 
BRANCH   2   3
ATOM      3  C   UNL     1      -4.492  -0.363 -26.335  1.00  0.00     0.093 C 
BRANCH   3   4
ATOM      4  C   UNL     1      -4.169  -0.462 -27.811  1.00  0.00    -0.040 A 
ATOM      5  C   UNL     1      -3.814  -1.698 -28.382  1.00  0.00     0.008 A 
ATOM      6  C   UNL     1      -3.481  -1.792 -29.736  1.00  0.00     0.050 A 
ATOM      7  C   UNL     1      -3.499  -0.646 -30.520  1.00  0.00     0.157 A 
ATOM      8  C   UNL     1      -4.190   0.682 -28.621  1.00  0.00     0.054 A 
ATOM      9  C   UNL     1      -3.850   0.580 -29.962  1.00  0.00     0.157 A 
BRANCH   7  10
ATOM     10  O   UNL     1      -3.177  -0.672 -31.848  1.00  0.00    -0.504 OA
ATOM     11  H   UNL     1      -2.521  -1.377 -31.986  1.00  0.00     0.293 HD
ENDBRANCH   7  10
BRANCH   9  12
ATOM     12  O   UNL     1      -3.859   1.705 -30.736  1.00  0.00    -0.504 OA
ATOM     13  H   UNL     1      -4.039   1.376 -31.640  1.00  0.00     0.293 HD
ENDBRANCH   9  12
ENDBRANCH   3   4
ENDBRANCH   2   3
BRANCH   2  14
ATOM     14  C   UNL     1      -6.089  -0.852 -24.455  1.00  0.00     0.345 C 
ATOM     15  O   UNL     1      -5.973   0.198 -23.838  1.00  0.00    -0.248 OA
BRANCH  14  16
ATOM     16  O   UNL     1      -6.475  -2.006 -23.855  1.00  0.00    -0.478 OA
ATOM     17  H   UNL     1      -5.686  -2.511 -23.566  1.00  0.00     0.296 HD
ENDBRANCH  14  16
ENDBRANCH   2  14
ENDBRANCH   1   2
BRANCH   1  18
ATOM     18  C   UNL     1      -7.927  -1.284 -27.007  1.00  0.00     0.331 C 
ATOM     19  O   UNL     1      -8.473  -2.075 -26.259  1.00  0.00    -0.247 OA
BRANCH  18  20
ATOM     20  C   UNL     1      -8.220  -1.121 -28.444  1.00  0.00     0.094 C 
ATOM     21  C   UNL     1      -8.444   0.106 -28.940  1.00  0.00     0.016 C 
BRANCH  21  22
ATOM     22  C   UNL     1      -8.735   0.373 -30.355  1.00  0.00    -0.021 A 
ATOM     23  C   UNL     1      -9.959  -0.068 -30.885  1.00  0.00     0.058 A 
ATOM     24  C   UNL     1      -7.809   1.006 -31.201  1.00  0.00     0.012 A 
ATOM     25  C   UNL     1     -10.247   0.154 -32.228  1.00  0.00     0.157 A 
ATOM     26  C   UNL     1      -8.108   1.225 -32.549  1.00  0.00     0.051 A 
ATOM     27  C   UNL     1      -9.328   0.800 -33.049  1.00  0.00     0.157 A 
BRANCH  25  28
ATOM     28  O   UNL     1     -11.427  -0.249 -32.790  1.00  0.00    -0.504 OA
ATOM     29  H   UNL     1     -12.105  -0.278 -32.093  1.00  0.00     0.293 HD
ENDBRANCH  25  28
BRANCH  27  30
ATOM     30  O   UNL     1      -9.620   1.012 -34.366  1.00  0.00    -0.504 OA
ATOM     31  H   UNL     1      -8.991   1.706 -34.648  1.00  0.00     0.293 HD
ENDBRANCH  27  30
ENDBRANCH  21  22
ENDBRANCH  18  20
ENDBRANCH   1  18
TORSDOF 12
ENDMDL
