MODEL 1
REMARK VINA RESULT:      -9.0      0.000      0.000
REMARK SMILES O=C(/C=C/c1ccc(O)c(O)c1)O[C@@H]1[C@H](O)C[C@@](O)(C(=O)O)C[C@H]1OC(=O)/C=C/c1ccc(O)c(O)c1
REMARK SMILES IDX 17 1 15 2 14 3 24 4 23 5 18 6 16 7 19 9 20 11 21 12 22 13
REMARK SMILES IDX 13 15 2 16 1 17 3 18 4 19 5 20 12 21 6 22 10 23 7 24 8 25
REMARK SMILES IDX 11 26 9 28 25 30 26 31 27 32 28 33 29 34 30 35 37 36 31 37
REMARK SMILES IDX 35 38 32 39 33 40 36 41 34 43
REMARK H PARENT 16 8 19 10 22 14 11 27 9 29 36 42 34 44
ROOT
ATOM      1  C   UNL     1      -8.516  -2.176 -20.934  1.00  0.00     0.083 C 
ATOM      2  C   UNL     1      -7.644  -2.504 -22.142  1.00  0.00     0.162 C 
ATOM      3  C   UNL     1      -7.284  -1.235 -22.933  1.00  0.00     0.246 C 
ATOM      4  C   UNL     1      -8.552  -0.477 -23.375  1.00  0.00     0.223 C 
ATOM      5  C   UNL     1      -9.453  -0.168 -22.174  1.00  0.00     0.097 C 
ATOM      6  C   UNL     1      -9.783  -1.415 -21.354  1.00  0.00     0.168 C 
ENDROOT
BRANCH   2   7
ATOM      7  O   UNL     1      -8.386  -3.409 -22.976  1.00  0.00    -0.389 OA
ATOM      8  H   UNL     1      -9.205  -2.938 -23.233  1.00  0.00     0.211 HD
ENDBRANCH   2   7
BRANCH   6   9
ATOM      9  O   UNL     1     -10.652  -2.266 -22.131  1.00  0.00    -0.378 OA
ATOM     10  H   UNL     1     -11.578  -1.972 -21.953  1.00  0.00     0.212 HD
ENDBRANCH   6   9
BRANCH   6  11
ATOM     11  C   UNL     1     -10.564  -1.009 -20.096  1.00  0.00     0.335 C 
ATOM     12  O   UNL     1     -10.598  -1.645 -19.054  1.00  0.00    -0.249 OA
BRANCH  11  13
ATOM     13  O   UNL     1     -11.219   0.167 -20.275  1.00  0.00    -0.479 OA
ATOM     14  H   UNL     1     -12.178  -0.053 -20.372  1.00  0.00     0.296 HD
ENDBRANCH  11  13
ENDBRANCH   6  11
BRANCH   3  15
ATOM     15  O   UNL     1      -6.545  -1.617 -24.115  1.00  0.00    -0.452 OA
BRANCH  15  16
ATOM     16  C   UNL     1      -5.501  -0.822 -24.443  1.00  0.00     0.331 C 
ATOM     17  O   UNL     1      -4.978   0.012 -23.724  1.00  0.00    -0.247 OA
BRANCH  16  18
ATOM     18  C   UNL     1      -5.099  -1.145 -25.825  1.00  0.00     0.094 C 
ATOM     19  C   UNL     1      -4.573  -0.190 -26.607  1.00  0.00     0.016 C 
BRANCH  19  20
ATOM     20  C   UNL     1      -4.137  -0.410 -27.994  1.00  0.00    -0.021 A 
ATOM     21  C   UNL     1      -4.138   0.681 -28.879  1.00  0.00     0.058 A 
ATOM     22  C   UNL     1      -3.774  -1.680 -28.473  1.00  0.00     0.012 A 
ATOM     23  C   UNL     1      -3.754   0.495 -30.204  1.00  0.00     0.157 A 
ATOM     24  C   UNL     1      -3.391  -1.858 -29.806  1.00  0.00     0.051 A 
ATOM     25  C   UNL     1      -3.382  -0.766 -30.659  1.00  0.00     0.157 A 
BRANCH  23  26
ATOM     26  O   UNL     1      -3.729   1.526 -31.103  1.00  0.00    -0.504 OA
ATOM     27  H   UNL     1      -4.067   2.325 -30.661  1.00  0.00     0.293 HD
ENDBRANCH  23  26
BRANCH  25  28
ATOM     28  O   UNL     1      -3.008  -0.940 -31.960  1.00  0.00    -0.504 OA
ATOM     29  H   UNL     1      -3.744  -0.562 -32.481  1.00  0.00     0.293 HD
ENDBRANCH  25  28
ENDBRANCH  19  20
ENDBRANCH  16  18
ENDBRANCH  15  16
ENDBRANCH   3  15
BRANCH   4  30
ATOM     30  O   UNL     1      -8.175   0.799 -23.947  1.00  0.00    -0.455 OA
BRANCH  30  31
ATOM     31  C   UNL     1      -8.754   1.136 -25.124  1.00  0.00     0.331 C 
ATOM     32  O   UNL     1      -9.283   2.205 -25.391  1.00  0.00    -0.247 OA
BRANCH  31  33
ATOM     33  C   UNL     1      -8.688   0.032 -26.103  1.00  0.00     0.094 C 
ATOM     34  C   UNL     1      -8.093   0.118 -27.304  1.00  0.00     0.016 C 
BRANCH  34  35
ATOM     35  C   UNL     1      -8.028  -1.005 -28.251  1.00  0.00    -0.021 A 
ATOM     36  C   UNL     1      -8.415  -2.281 -27.814  1.00  0.00     0.058 A 
ATOM     37  C   UNL     1      -7.542  -0.843 -29.560  1.00  0.00     0.012 A 
ATOM     38  C   UNL     1      -8.338  -3.360 -28.690  1.00  0.00     0.157 A 
ATOM     39  C   UNL     1      -7.467  -1.933 -30.431  1.00  0.00     0.051 A 
ATOM     40  C   UNL     1      -7.868  -3.182 -29.988  1.00  0.00     0.157 A 
BRANCH  38  41
ATOM     41  O   UNL     1      -8.713  -4.622 -28.318  1.00  0.00    -0.504 OA
ATOM     42  H   UNL     1      -7.979  -5.027 -27.825  1.00  0.00     0.293 HD
ENDBRANCH  38  41
BRANCH  40  43
ATOM     43  O   UNL     1      -7.795  -4.246 -30.839  1.00  0.00    -0.504 OA
ATOM     44  H   UNL     1      -7.280  -4.919 -30.349  1.00  0.00     0.293 HD
ENDBRANCH  40  43
ENDBRANCH  34  35
ENDBRANCH  31  33
ENDBRANCH  30  31
ENDBRANCH   4  30
TORSDOF 16
ENDMDL
MODEL 2
REMARK VINA RESULT:      -9.0      1.872      4.217
REMARK SMILES O=C(/C=C/c1ccc(O)c(O)c1)O[C@@H]1[C@H](O)C[C@@](O)(C(=O)O)C[C@H]1OC(=O)/C=C/c1ccc(O)c(O)c1
REMARK SMILES IDX 17 1 15 2 14 3 24 4 23 5 18 6 16 7 19 9 20 11 21 12 22 13
REMARK SMILES IDX 13 15 2 16 1 17 3 18 4 19 5 20 12 21 6 22 10 23 7 24 8 25
REMARK SMILES IDX 11 26 9 28 25 30 26 31 27 32 28 33 29 34 30 35 37 36 31 37
REMARK SMILES IDX 35 38 32 39 33 40 36 41 34 43
REMARK H PARENT 16 8 19 10 22 14 11 27 9 29 36 42 34 44
ROOT
ATOM      1  C   UNL     1     -10.568  -2.567 -23.093  1.00  0.00     0.083 C 
ATOM      2  C   UNL     1     -10.527  -1.796 -24.410  1.00  0.00     0.162 C 
ATOM      3  C   UNL     1      -9.124  -1.840 -25.040  1.00  0.00     0.246 C 
ATOM      4  C   UNL     1      -8.060  -1.299 -24.064  1.00  0.00     0.223 C 
ATOM      5  C   UNL     1      -8.111  -2.043 -22.726  1.00  0.00     0.097 C 
ATOM      6  C   UNL     1      -9.510  -2.045 -22.111  1.00  0.00     0.168 C 
ENDROOT
BRANCH   2   7
ATOM      7  O   UNL     1     -10.895  -0.437 -24.124  1.00  0.00    -0.389 OA
ATOM      8  H   UNL     1     -11.575  -0.191 -24.785  1.00  0.00     0.211 HD
ENDBRANCH   2   7
BRANCH   6   9
ATOM      9  O   UNL     1      -9.831  -0.703 -21.684  1.00  0.00    -0.378 OA
ATOM     10  H   UNL     1     -10.580  -0.393 -22.247  1.00  0.00     0.212 HD
ENDBRANCH   6   9
BRANCH   6  11
ATOM     11  C   UNL     1      -9.516  -2.926 -20.853  1.00  0.00     0.335 C 
ATOM     12  O   UNL     1      -9.918  -2.579 -19.753  1.00  0.00    -0.249 OA
BRANCH  11  13
ATOM     13  O   UNL     1      -9.020  -4.163 -21.110  1.00  0.00    -0.479 OA
ATOM     14  H   UNL     1      -8.761  -4.554 -20.239  1.00  0.00     0.296 HD
ENDBRANCH  11  13
ENDBRANCH   6  11
BRANCH   3  15
ATOM     15  O   UNL     1      -9.120  -1.014 -26.226  1.00  0.00    -0.452 OA
BRANCH  15  16
ATOM     16  C   UNL     1      -8.932  -1.664 -27.398  1.00  0.00     0.331 C 
ATOM     17  O   UNL     1      -9.507  -2.674 -27.762  1.00  0.00    -0.247 OA
BRANCH  16  18
ATOM     18  C   UNL     1      -7.909  -0.928 -28.166  1.00  0.00     0.094 C 
ATOM     19  C   UNL     1      -7.860   0.411 -28.098  1.00  0.00     0.016 C 
BRANCH  19  20
ATOM     20  C   UNL     1      -6.879   1.236 -28.818  1.00  0.00    -0.021 A 
ATOM     21  C   UNL     1      -6.344   2.362 -28.171  1.00  0.00     0.058 A 
ATOM     22  C   UNL     1      -6.503   0.967 -30.145  1.00  0.00     0.012 A 
ATOM     23  C   UNL     1      -5.433   3.175 -28.839  1.00  0.00     0.157 A 
ATOM     24  C   UNL     1      -5.588   1.789 -30.809  1.00  0.00     0.051 A 
ATOM     25  C   UNL     1      -5.059   2.885 -30.148  1.00  0.00     0.157 A 
BRANCH  23  26
ATOM     26  O   UNL     1      -4.876   4.276 -28.249  1.00  0.00    -0.504 OA
ATOM     27  H   UNL     1      -5.383   5.060 -28.525  1.00  0.00     0.293 HD
ENDBRANCH  23  26
BRANCH  25  28
ATOM     28  O   UNL     1      -4.165   3.688 -30.797  1.00  0.00    -0.504 OA
ATOM     29  H   UNL     1      -4.686   4.112 -31.506  1.00  0.00     0.293 HD
ENDBRANCH  25  28
ENDBRANCH  19  20
ENDBRANCH  16  18
ENDBRANCH  15  16
ENDBRANCH   3  15
BRANCH   4  30
ATOM     30  O   UNL     1      -6.741  -1.530 -24.615  1.00  0.00    -0.455 OA
BRANCH  30  31
ATOM     31  C   UNL     1      -5.809  -0.573 -24.392  1.00  0.00     0.331 C 
ATOM     32  O   UNL     1      -5.564  -0.034 -23.323  1.00  0.00    -0.247 OA
BRANCH  31  33
ATOM     33  C   UNL     1      -5.081  -0.218 -25.628  1.00  0.00     0.094 C 
ATOM     34  C   UNL     1      -4.579  -1.110 -26.496  1.00  0.00     0.016 C 
BRANCH  34  35
ATOM     35  C   UNL     1      -3.875  -0.726 -27.728  1.00  0.00    -0.021 A 
ATOM     36  C   UNL     1      -3.954  -1.574 -28.844  1.00  0.00     0.058 A 
ATOM     37  C   UNL     1      -3.088   0.436 -27.800  1.00  0.00     0.012 A 
ATOM     38  C   UNL     1      -3.275  -1.238 -30.012  1.00  0.00     0.157 A 
ATOM     39  C   UNL     1      -2.409   0.764 -28.977  1.00  0.00     0.051 A 
ATOM     40  C   UNL     1      -2.511  -0.076 -30.074  1.00  0.00     0.157 A 
BRANCH  38  41
ATOM     41  O   UNL     1      -3.328  -2.023 -31.131  1.00  0.00    -0.504 OA
ATOM     42  H   UNL     1      -4.035  -1.687 -31.708  1.00  0.00     0.293 HD
ENDBRANCH  38  41
BRANCH  40  43
ATOM     43  O   UNL     1      -1.848   0.245 -31.223  1.00  0.00    -0.504 OA
ATOM     44  H   UNL     1      -0.935   0.444 -30.932  1.00  0.00     0.293 HD
ENDBRANCH  40  43
ENDBRANCH  34  35
ENDBRANCH  31  33
ENDBRANCH  30  31
ENDBRANCH   4  30
TORSDOF 16
ENDMDL
MODEL 3
REMARK VINA RESULT:      -8.9      2.274      4.676
REMARK SMILES O=C(/C=C/c1ccc(O)c(O)c1)O[C@@H]1[C@H](O)C[C@@](O)(C(=O)O)C[C@H]1OC(=O)/C=C/c1ccc(O)c(O)c1
REMARK SMILES IDX 17 1 15 2 14 3 24 4 23 5 18 6 16 7 19 9 20 11 21 12 22 13
REMARK SMILES IDX 13 15 2 16 1 17 3 18 4 19 5 20 12 21 6 22 10 23 7 24 8 25
REMARK SMILES IDX 11 26 9 28 25 30 26 31 27 32 28 33 29 34 30 35 37 36 31 37
REMARK SMILES IDX 35 38 32 39 33 40 36 41 34 43
REMARK H PARENT 16 8 19 10 22 14 11 27 9 29 36 42 34 44
ROOT
ATOM      1  C   UNL     1     -10.659  -3.007 -22.811  1.00  0.00     0.083 C 
ATOM      2  C   UNL     1     -10.616  -2.496 -24.248  1.00  0.00     0.162 C 
ATOM      3  C   UNL     1      -9.172  -2.436 -24.777  1.00  0.00     0.246 C 
ATOM      4  C   UNL     1      -8.283  -1.563 -23.868  1.00  0.00     0.223 C 
ATOM      5  C   UNL     1      -8.341  -2.046 -22.416  1.00  0.00     0.097 C 
ATOM      6  C   UNL     1      -9.774  -2.153 -21.891  1.00  0.00     0.168 C 
ENDROOT
BRANCH   2   7
ATOM      7  O   UNL     1     -11.197  -1.182 -24.255  1.00  0.00    -0.389 OA
ATOM      8  H   UNL     1     -11.009  -0.792 -23.377  1.00  0.00     0.211 HD
ENDBRANCH   2   7
BRANCH   6   9
ATOM      9  O   UNL     1     -10.318  -0.823 -21.754  1.00  0.00    -0.378 OA
ATOM     10  H   UNL     1      -9.585  -0.241 -21.440  1.00  0.00     0.212 HD
ENDBRANCH   6   9
BRANCH   6  11
ATOM     11  C   UNL     1      -9.760  -2.776 -20.488  1.00  0.00     0.335 C 
ATOM     12  O   UNL     1     -10.230  -2.260 -19.486  1.00  0.00    -0.249 OA
BRANCH  11  13
ATOM     13  O   UNL     1      -9.162  -3.995 -20.490  1.00  0.00    -0.479 OA
ATOM     14  H   UNL     1      -9.474  -4.465 -21.304  1.00  0.00     0.296 HD
ENDBRANCH  11  13
ENDBRANCH   6  11
BRANCH   3  15
ATOM     15  O   UNL     1      -9.186  -1.853 -26.100  1.00  0.00    -0.452 OA
BRANCH  15  16
ATOM     16  C   UNL     1      -9.491  -2.695 -27.114  1.00  0.00     0.331 C 
ATOM     17  O   UNL     1      -9.612  -3.905 -27.033  1.00  0.00    -0.247 OA
BRANCH  16  18
ATOM     18  C   UNL     1      -9.660  -1.890 -28.339  1.00  0.00     0.094 C 
ATOM     19  C   UNL     1      -8.737  -1.954 -29.311  1.00  0.00     0.016 C 
BRANCH  19  20
ATOM     20  C   UNL     1      -8.815  -1.198 -30.570  1.00  0.00    -0.021 A 
ATOM     21  C   UNL     1     -10.070  -1.032 -31.177  1.00  0.00     0.058 A 
ATOM     22  C   UNL     1      -7.673  -0.685 -31.208  1.00  0.00     0.012 A 
ATOM     23  C   UNL     1     -10.169  -0.342 -32.382  1.00  0.00     0.157 A 
ATOM     24  C   UNL     1      -7.781   0.006 -32.419  1.00  0.00     0.051 A 
ATOM     25  C   UNL     1      -9.030   0.173 -32.994  1.00  0.00     0.157 A 
BRANCH  23  26
ATOM     26  O   UNL     1     -11.369  -0.146 -33.009  1.00  0.00    -0.504 OA
ATOM     27  H   UNL     1     -11.194   0.152 -33.918  1.00  0.00     0.293 HD
ENDBRANCH  23  26
BRANCH  25  28
ATOM     28  O   UNL     1      -9.135   0.847 -34.176  1.00  0.00    -0.504 OA
ATOM     29  H   UNL     1      -9.999   0.571 -34.541  1.00  0.00     0.293 HD
ENDBRANCH  25  28
ENDBRANCH  19  20
ENDBRANCH  16  18
ENDBRANCH  15  16
ENDBRANCH   3  15
BRANCH   4  30
ATOM     30  O   UNL     1      -6.903  -1.683 -24.289  1.00  0.00    -0.455 OA
BRANCH  30  31
ATOM     31  C   UNL     1      -6.272  -0.540 -24.648  1.00  0.00     0.331 C 
ATOM     32  O   UNL     1      -6.309   0.527 -24.052  1.00  0.00    -0.247 OA
BRANCH  31  33
ATOM     33  C   UNL     1      -5.498  -0.709 -25.895  1.00  0.00     0.094 C 
ATOM     34  C   UNL     1      -5.897  -0.273 -27.100  1.00  0.00     0.016 C 
BRANCH  34  35
ATOM     35  C   UNL     1      -5.097  -0.440 -28.322  1.00  0.00    -0.021 A 
ATOM     36  C   UNL     1      -4.932   0.660 -29.178  1.00  0.00     0.058 A 
ATOM     37  C   UNL     1      -4.538  -1.679 -28.678  1.00  0.00     0.012 A 
ATOM     38  C   UNL     1      -4.197   0.515 -30.350  1.00  0.00     0.157 A 
ATOM     39  C   UNL     1      -3.803  -1.815 -29.859  1.00  0.00     0.051 A 
ATOM     40  C   UNL     1      -3.637  -0.715 -30.684  1.00  0.00     0.157 A 
BRANCH  38  41
ATOM     41  O   UNL     1      -3.997   1.557 -31.213  1.00  0.00    -0.504 OA
ATOM     42  H   UNL     1      -4.818   1.703 -31.714  1.00  0.00     0.293 HD
ENDBRANCH  38  41
BRANCH  40  43
ATOM     43  O   UNL     1      -2.919  -0.849 -31.836  1.00  0.00    -0.504 OA
ATOM     44  H   UNL     1      -2.075  -0.386 -31.656  1.00  0.00     0.293 HD
ENDBRANCH  40  43
ENDBRANCH  34  35
ENDBRANCH  31  33
ENDBRANCH  30  31
ENDBRANCH   4  30
TORSDOF 16
ENDMDL
MODEL 4
REMARK VINA RESULT:      -8.8      1.791      2.349
REMARK SMILES O=C(/C=C/c1ccc(O)c(O)c1)O[C@@H]1[C@H](O)C[C@@](O)(C(=O)O)C[C@H]1OC(=O)/C=C/c1ccc(O)c(O)c1
REMARK SMILES IDX 17 1 15 2 14 3 24 4 23 5 18 6 16 7 19 9 20 11 21 12 22 13
REMARK SMILES IDX 13 15 2 16 1 17 3 18 4 19 5 20 12 21 6 22 10 23 7 24 8 25
REMARK SMILES IDX 11 26 9 28 25 30 26 31 27 32 28 33 29 34 30 35 37 36 31 37
REMARK SMILES IDX 35 38 32 39 33 40 36 41 34 43
REMARK H PARENT 16 8 19 10 22 14 11 27 9 29 36 42 34 44
ROOT
ATOM      1  C   UNL     1      -8.407  -1.797 -20.637  1.00  0.00     0.083 C 
ATOM      2  C   UNL     1      -7.533  -2.182 -21.828  1.00  0.00     0.162 C 
ATOM      3  C   UNL     1      -7.765  -1.238 -23.020  1.00  0.00     0.246 C 
ATOM      4  C   UNL     1      -9.252  -1.214 -23.428  1.00  0.00     0.223 C 
ATOM      5  C   UNL     1     -10.144  -0.858 -22.234  1.00  0.00     0.097 C 
ATOM      6  C   UNL     1      -9.892  -1.762 -21.026  1.00  0.00     0.168 C 
ENDROOT
BRANCH   2   7
ATOM      7  O   UNL     1      -7.874  -3.529 -22.193  1.00  0.00    -0.389 OA
ATOM      8  H   UNL     1      -7.041  -3.956 -22.482  1.00  0.00     0.211 HD
ENDBRANCH   2   7
BRANCH   6   9
ATOM      9  O   UNL     1     -10.368  -3.090 -21.332  1.00  0.00    -0.378 OA
ATOM     10  H   UNL     1     -11.325  -3.008 -21.560  1.00  0.00     0.212 HD
ENDBRANCH   6   9
BRANCH   6  11
ATOM     11  C   UNL     1     -10.712  -1.258 -19.830  1.00  0.00     0.335 C 
ATOM     12  O   UNL     1     -10.864  -1.861 -18.779  1.00  0.00    -0.249 OA
BRANCH  11  13
ATOM     13  O   UNL     1     -11.253  -0.037 -20.076  1.00  0.00    -0.479 OA
ATOM     14  H   UNL     1     -12.228  -0.124 -19.936  1.00  0.00     0.296 HD
ENDBRANCH  11  13
ENDBRANCH   6  11
BRANCH   3  15
ATOM     15  O   UNL     1      -6.990  -1.710 -24.145  1.00  0.00    -0.452 OA
BRANCH  15  16
ATOM     16  C   UNL     1      -5.888  -0.986 -24.449  1.00  0.00     0.331 C 
ATOM     17  O   UNL     1      -5.243  -0.298 -23.677  1.00  0.00    -0.247 OA
BRANCH  16  18
ATOM     18  C   UNL     1      -5.597  -1.180 -25.882  1.00  0.00     0.094 C 
ATOM     19  C   UNL     1      -4.460  -0.694 -26.403  1.00  0.00     0.016 C 
BRANCH  19  20
ATOM     20  C   UNL     1      -4.075  -0.838 -27.815  1.00  0.00    -0.021 A 
ATOM     21  C   UNL     1      -2.977  -0.104 -28.290  1.00  0.00     0.058 A 
ATOM     22  C   UNL     1      -4.801  -1.641 -28.712  1.00  0.00     0.012 A 
ATOM     23  C   UNL     1      -2.606  -0.202 -29.628  1.00  0.00     0.157 A 
ATOM     24  C   UNL     1      -4.422  -1.733 -30.054  1.00  0.00     0.051 A 
ATOM     25  C   UNL     1      -3.326  -1.014 -30.500  1.00  0.00     0.157 A 
BRANCH  23  26
ATOM     26  O   UNL     1      -1.538   0.486 -30.136  1.00  0.00    -0.504 OA
ATOM     27  H   UNL     1      -0.884   0.602 -29.426  1.00  0.00     0.293 HD
ENDBRANCH  23  26
BRANCH  25  28
ATOM     28  O   UNL     1      -2.957  -1.103 -31.811  1.00  0.00    -0.504 OA
ATOM     29  H   UNL     1      -3.366  -1.933 -32.126  1.00  0.00     0.293 HD
ENDBRANCH  25  28
ENDBRANCH  19  20
ENDBRANCH  16  18
ENDBRANCH  15  16
ENDBRANCH   3  15
BRANCH   4  30
ATOM     30  O   UNL     1      -9.461  -0.181 -24.421  1.00  0.00    -0.455 OA
BRANCH  30  31
ATOM     31  C   UNL     1     -10.125  -0.539 -25.546  1.00  0.00     0.331 C 
ATOM     32  O   UNL     1     -11.235  -1.048 -25.601  1.00  0.00    -0.247 OA
BRANCH  31  33
ATOM     33  C   UNL     1      -9.339  -0.249 -26.762  1.00  0.00     0.094 C 
ATOM     34  C   UNL     1      -8.463   0.763 -26.877  1.00  0.00     0.016 C 
BRANCH  34  35
ATOM     35  C   UNL     1      -7.681   1.016 -28.095  1.00  0.00    -0.021 A 
ATOM     36  C   UNL     1      -8.002   0.307 -29.264  1.00  0.00     0.058 A 
ATOM     37  C   UNL     1      -6.593   1.905 -28.107  1.00  0.00     0.012 A 
ATOM     38  C   UNL     1      -7.258   0.517 -30.421  1.00  0.00     0.157 A 
ATOM     39  C   UNL     1      -5.851   2.107 -29.273  1.00  0.00     0.051 A 
ATOM     40  C   UNL     1      -6.193   1.412 -30.422  1.00  0.00     0.157 A 
BRANCH  38  41
ATOM     41  O   UNL     1      -7.536  -0.139 -31.589  1.00  0.00    -0.504 OA
ATOM     42  H   UNL     1      -6.710  -0.523 -31.929  1.00  0.00     0.293 HD
ENDBRANCH  38  41
BRANCH  40  43
ATOM     43  O   UNL     1      -5.467   1.610 -31.560  1.00  0.00    -0.504 OA
ATOM     44  H   UNL     1      -4.802   2.284 -31.315  1.00  0.00     0.293 HD
ENDBRANCH  40  43
ENDBRANCH  34  35
ENDBRANCH  31  33
ENDBRANCH  30  31
ENDBRANCH   4  30
TORSDOF 16
ENDMDL
MODEL 5
REMARK VINA RESULT:      -8.8      1.939      4.419
REMARK SMILES O=C(/C=C/c1ccc(O)c(O)c1)O[C@@H]1[C@H](O)C[C@@](O)(C(=O)O)C[C@H]1OC(=O)/C=C/c1ccc(O)c(O)c1
REMARK SMILES IDX 17 1 15 2 14 3 24 4 23 5 18 6 16 7 19 9 20 11 21 12 22 13
REMARK SMILES IDX 13 15 2 16 1 17 3 18 4 19 5 20 12 21 6 22 10 23 7 24 8 25
REMARK SMILES IDX 11 26 9 28 25 30 26 31 27 32 28 33 29 34 30 35 37 36 31 37
REMARK SMILES IDX 35 38 32 39 33 40 36 41 34 43
REMARK H PARENT 16 8 19 10 22 14 11 27 9 29 36 42 34 44
ROOT
ATOM      1  C   UNL     1     -10.679  -3.127 -22.858  1.00  0.00     0.083 C 
ATOM      2  C   UNL     1     -10.704  -2.576 -24.281  1.00  0.00     0.162 C 
ATOM      3  C   UNL     1      -9.282  -2.439 -24.852  1.00  0.00     0.246 C 
ATOM      4  C   UNL     1      -8.402  -1.554 -23.947  1.00  0.00     0.223 C 
ATOM      5  C   UNL     1      -8.393  -2.079 -22.507  1.00  0.00     0.097 C 
ATOM      6  C   UNL     1      -9.802  -2.261 -21.942  1.00  0.00     0.168 C 
ENDROOT
BRANCH   2   7
ATOM      7  O   UNL     1     -11.340  -1.288 -24.233  1.00  0.00    -0.389 OA
ATOM      8  H   UNL     1     -10.628  -0.634 -24.079  1.00  0.00     0.211 HD
ENDBRANCH   2   7
BRANCH   6   9
ATOM      9  O   UNL     1     -10.397  -0.960 -21.751  1.00  0.00    -0.378 OA
ATOM     10  H   UNL     1     -10.828  -0.710 -22.603  1.00  0.00     0.212 HD
ENDBRANCH   6   9
BRANCH   6  11
ATOM     11  C   UNL     1      -9.718  -2.921 -20.559  1.00  0.00     0.335 C 
ATOM     12  O   UNL     1     -10.150  -2.440 -19.523  1.00  0.00    -0.249 OA
BRANCH  11  13
ATOM     13  O   UNL     1      -9.102  -4.129 -20.620  1.00  0.00    -0.479 OA
ATOM     14  H   UNL     1      -9.028  -4.460 -19.691  1.00  0.00     0.296 HD
ENDBRANCH  11  13
ENDBRANCH   6  11
BRANCH   3  15
ATOM     15  O   UNL     1      -9.362  -1.822 -26.157  1.00  0.00    -0.452 OA
BRANCH  15  16
ATOM     16  C   UNL     1      -9.421  -2.670 -27.210  1.00  0.00     0.331 C 
ATOM     17  O   UNL     1      -9.506  -3.884 -27.152  1.00  0.00    -0.247 OA
BRANCH  16  18
ATOM     18  C   UNL     1      -9.373  -1.865 -28.445  1.00  0.00     0.094 C 
ATOM     19  C   UNL     1      -8.449  -2.134 -29.380  1.00  0.00     0.016 C 
BRANCH  19  20
ATOM     20  C   UNL     1      -8.319  -1.397 -30.645  1.00  0.00    -0.021 A 
ATOM     21  C   UNL     1      -7.196  -0.575 -30.832  1.00  0.00     0.058 A 
ATOM     22  C   UNL     1      -9.306  -1.444 -31.645  1.00  0.00     0.012 A 
ATOM     23  C   UNL     1      -7.061   0.154 -32.010  1.00  0.00     0.157 A 
ATOM     24  C   UNL     1      -9.163  -0.708 -32.825  1.00  0.00     0.051 A 
ATOM     25  C   UNL     1      -8.039   0.084 -32.997  1.00  0.00     0.157 A 
BRANCH  23  26
ATOM     26  O   UNL     1      -5.981   0.961 -32.243  1.00  0.00    -0.504 OA
ATOM     27  H   UNL     1      -5.296   0.432 -32.689  1.00  0.00     0.293 HD
ENDBRANCH  23  26
BRANCH  25  28
ATOM     28  O   UNL     1      -7.900   0.803 -34.149  1.00  0.00    -0.504 OA
ATOM     29  H   UNL     1      -8.180   1.709 -33.909  1.00  0.00     0.293 HD
ENDBRANCH  25  28
ENDBRANCH  19  20
ENDBRANCH  16  18
ENDBRANCH  15  16
ENDBRANCH   3  15
BRANCH   4  30
ATOM     30  O   UNL     1      -7.032  -1.604 -24.413  1.00  0.00    -0.455 OA
BRANCH  30  31
ATOM     31  C   UNL     1      -6.450  -0.422 -24.728  1.00  0.00     0.331 C 
ATOM     32  O   UNL     1      -6.326   0.544 -23.989  1.00  0.00    -0.247 OA
BRANCH  31  33
ATOM     33  C   UNL     1      -5.961  -0.406 -26.121  1.00  0.00     0.094 C 
ATOM     34  C   UNL     1      -4.700  -0.688 -26.486  1.00  0.00     0.016 C 
BRANCH  34  35
ATOM     35  C   UNL     1      -4.246  -0.682 -27.884  1.00  0.00    -0.021 A 
ATOM     36  C   UNL     1      -4.150   0.545 -28.558  1.00  0.00     0.058 A 
ATOM     37  C   UNL     1      -3.958  -1.872 -28.575  1.00  0.00     0.012 A 
ATOM     38  C   UNL     1      -3.744   0.569 -29.889  1.00  0.00     0.157 A 
ATOM     39  C   UNL     1      -3.554  -1.838 -29.912  1.00  0.00     0.051 A 
ATOM     40  C   UNL     1      -3.448  -0.616 -30.557  1.00  0.00     0.157 A 
BRANCH  38  41
ATOM     41  O   UNL     1      -3.622   1.738 -30.589  1.00  0.00    -0.504 OA
ATOM     42  H   UNL     1      -2.740   1.761 -30.997  1.00  0.00     0.293 HD
ENDBRANCH  38  41
BRANCH  40  43
ATOM     43  O   UNL     1      -3.052  -0.584 -31.862  1.00  0.00    -0.504 OA
ATOM     44  H   UNL     1      -3.874  -0.732 -32.372  1.00  0.00     0.293 HD
ENDBRANCH  40  43
ENDBRANCH  34  35
ENDBRANCH  31  33
ENDBRANCH  30  31
ENDBRANCH   4  30
TORSDOF 16
ENDMDL
MODEL 6
REMARK VINA RESULT:      -8.7      1.858      2.173
REMARK SMILES O=C(/C=C/c1ccc(O)c(O)c1)O[C@@H]1[C@H](O)C[C@@](O)(C(=O)O)C[C@H]1OC(=O)/C=C/c1ccc(O)c(O)c1
REMARK SMILES IDX 17 1 15 2 14 3 24 4 23 5 18 6 16 7 19 9 20 11 21 12 22 13
REMARK SMILES IDX 13 15 2 16 1 17 3 18 4 19 5 20 12 21 6 22 10 23 7 24 8 25
REMARK SMILES IDX 11 26 9 28 25 30 26 31 27 32 28 33 29 34 30 35 37 36 31 37
REMARK SMILES IDX 35 38 32 39 33 40 36 41 34 43
REMARK H PARENT 16 8 19 10 22 14 11 27 9 29 36 42 34 44
ROOT
ATOM      1  C   UNL     1      -8.286  -1.803 -20.725  1.00  0.00     0.083 C 
ATOM      2  C   UNL     1      -7.364  -2.171 -21.884  1.00  0.00     0.162 C 
ATOM      3  C   UNL     1      -7.607  -1.265 -23.103  1.00  0.00     0.246 C 
ATOM      4  C   UNL     1      -9.082  -1.319 -23.550  1.00  0.00     0.223 C 
ATOM      5  C   UNL     1     -10.022  -0.981 -22.388  1.00  0.00     0.097 C 
ATOM      6  C   UNL     1      -9.760  -1.846 -21.154  1.00  0.00     0.168 C 
ENDROOT
BRANCH   2   7
ATOM      7  O   UNL     1      -7.631  -3.541 -22.228  1.00  0.00    -0.389 OA
ATOM      8  H   UNL     1      -6.869  -4.061 -21.902  1.00  0.00     0.211 HD
ENDBRANCH   2   7
BRANCH   6   9
ATOM      9  O   UNL     1     -10.166  -3.201 -21.442  1.00  0.00    -0.378 OA
ATOM     10  H   UNL     1     -10.505  -3.210 -22.369  1.00  0.00     0.212 HD
ENDBRANCH   6   9
BRANCH   6  11
ATOM     11  C   UNL     1     -10.635  -1.357 -19.991  1.00  0.00     0.335 C 
ATOM     12  O   UNL     1     -10.838  -1.973 -18.956  1.00  0.00    -0.249 OA
BRANCH  11  13
ATOM     13  O   UNL     1     -11.161  -0.131 -20.245  1.00  0.00    -0.479 OA
ATOM     14  H   UNL     1     -12.068  -0.122 -19.850  1.00  0.00     0.296 HD
ENDBRANCH  11  13
ENDBRANCH   6  11
BRANCH   3  15
ATOM     15  O   UNL     1      -6.781  -1.723 -24.196  1.00  0.00    -0.452 OA
BRANCH  15  16
ATOM     16  C   UNL     1      -5.677  -0.983 -24.454  1.00  0.00     0.331 C 
ATOM     17  O   UNL     1      -5.122  -0.226 -23.678  1.00  0.00    -0.247 OA
BRANCH  16  18
ATOM     18  C   UNL     1      -5.258  -1.260 -25.841  1.00  0.00     0.094 C 
ATOM     19  C   UNL     1      -4.679  -0.292 -26.568  1.00  0.00     0.016 C 
BRANCH  19  20
ATOM     20  C   UNL     1      -4.221  -0.466 -27.954  1.00  0.00    -0.021 A 
ATOM     21  C   UNL     1      -4.222   0.649 -28.807  1.00  0.00     0.058 A 
ATOM     22  C   UNL     1      -3.837  -1.718 -28.465  1.00  0.00     0.012 A 
ATOM     23  C   UNL     1      -3.818   0.506 -30.131  1.00  0.00     0.157 A 
ATOM     24  C   UNL     1      -3.433  -1.853 -29.796  1.00  0.00     0.051 A 
ATOM     25  C   UNL     1      -3.425  -0.737 -30.617  1.00  0.00     0.157 A 
BRANCH  23  26
ATOM     26  O   UNL     1      -3.793   1.564 -30.999  1.00  0.00    -0.504 OA
ATOM     27  H   UNL     1      -4.427   2.232 -30.685  1.00  0.00     0.293 HD
ENDBRANCH  23  26
BRANCH  25  28
ATOM     28  O   UNL     1      -3.032  -0.868 -31.918  1.00  0.00    -0.504 OA
ATOM     29  H   UNL     1      -3.538  -1.634 -32.252  1.00  0.00     0.293 HD
ENDBRANCH  25  28
ENDBRANCH  19  20
ENDBRANCH  16  18
ENDBRANCH  15  16
ENDBRANCH   3  15
BRANCH   4  30
ATOM     30  O   UNL     1      -9.312  -0.318 -24.570  1.00  0.00    -0.455 OA
BRANCH  30  31
ATOM     31  C   UNL     1     -10.208  -0.626 -25.538  1.00  0.00     0.331 C 
ATOM     32  O   UNL     1     -11.322  -1.099 -25.371  1.00  0.00    -0.247 OA
BRANCH  31  33
ATOM     33  C   UNL     1      -9.682  -0.329 -26.887  1.00  0.00     0.094 C 
ATOM     34  C   UNL     1     -10.185  -0.832 -28.025  1.00  0.00     0.016 C 
BRANCH  34  35
ATOM     35  C   UNL     1      -9.651  -0.503 -29.355  1.00  0.00    -0.021 A 
ATOM     36  C   UNL     1     -10.552  -0.231 -30.396  1.00  0.00     0.058 A 
ATOM     37  C   UNL     1      -8.271  -0.505 -29.621  1.00  0.00     0.012 A 
ATOM     38  C   UNL     1     -10.066   0.060 -31.668  1.00  0.00     0.157 A 
ATOM     39  C   UNL     1      -7.793  -0.214 -30.901  1.00  0.00     0.051 A 
ATOM     40  C   UNL     1      -8.695   0.069 -31.913  1.00  0.00     0.157 A 
BRANCH  38  41
ATOM     41  O   UNL     1     -10.899   0.343 -32.714  1.00  0.00    -0.504 OA
ATOM     42  H   UNL     1     -11.523   1.034 -32.432  1.00  0.00     0.293 HD
ENDBRANCH  38  41
BRANCH  40  43
ATOM     43  O   UNL     1      -8.228   0.353 -33.163  1.00  0.00    -0.504 OA
ATOM     44  H   UNL     1      -7.254   0.377 -33.062  1.00  0.00     0.293 HD
ENDBRANCH  40  43
ENDBRANCH  34  35
ENDBRANCH  31  33
ENDBRANCH  30  31
ENDBRANCH   4  30
TORSDOF 16
ENDMDL
MODEL 7
REMARK VINA RESULT:      -8.6      2.083      3.024
REMARK SMILES O=C(/C=C/c1ccc(O)c(O)c1)O[C@@H]1[C@H](O)C[C@@](O)(C(=O)O)C[C@H]1OC(=O)/C=C/c1ccc(O)c(O)c1
REMARK SMILES IDX 17 1 15 2 14 3 24 4 23 5 18 6 16 7 19 9 20 11 21 12 22 13
REMARK SMILES IDX 13 15 2 16 1 17 3 18 4 19 5 20 12 21 6 22 10 23 7 24 8 25
REMARK SMILES IDX 11 26 9 28 25 30 26 31 27 32 28 33 29 34 30 35 37 36 31 37
REMARK SMILES IDX 35 38 32 39 33 40 36 41 34 43
REMARK H PARENT 16 8 19 10 22 14 11 27 9 29 36 42 34 44
ROOT
ATOM      1  C   UNL     1      -7.905  -1.500 -21.836  1.00  0.00     0.083 C 
ATOM      2  C   UNL     1      -7.341  -1.171 -23.216  1.00  0.00     0.162 C 
ATOM      3  C   UNL     1      -8.461  -1.050 -24.263  1.00  0.00     0.246 C 
ATOM      4  C   UNL     1      -9.310  -2.336 -24.321  1.00  0.00     0.223 C 
ATOM      5  C   UNL     1      -9.857  -2.696 -22.936  1.00  0.00     0.097 C 
ATOM      6  C   UNL     1      -8.758  -2.776 -21.876  1.00  0.00     0.168 C 
ENDROOT
BRANCH   2   7
ATOM      7  O   UNL     1      -6.442  -2.232 -23.578  1.00  0.00    -0.389 OA
ATOM      8  H   UNL     1      -6.308  -2.767 -22.769  1.00  0.00     0.211 HD
ENDBRANCH   2   7
BRANCH   6   9
ATOM      9  O   UNL     1      -7.935  -3.930 -22.148  1.00  0.00    -0.378 OA
ATOM     10  H   UNL     1      -7.936  -4.485 -21.331  1.00  0.00     0.212 HD
ENDBRANCH   6   9
BRANCH   6  11
ATOM     11  C   UNL     1      -9.393  -2.997 -20.495  1.00  0.00     0.335 C 
ATOM     12  O   UNL     1     -10.136  -2.210 -19.929  1.00  0.00    -0.249 OA
BRANCH  11  13
ATOM     13  O   UNL     1      -9.035  -4.196 -19.968  1.00  0.00    -0.479 OA
ATOM     14  H   UNL     1      -9.303  -4.887 -20.623  1.00  0.00     0.296 HD
ENDBRANCH  11  13
ENDBRANCH   6  11
BRANCH   3  15
ATOM     15  O   UNL     1      -7.863  -0.838 -25.562  1.00  0.00    -0.452 OA
BRANCH  15  16
ATOM     16  C   UNL     1      -7.757   0.451 -25.961  1.00  0.00     0.331 C 
ATOM     17  O   UNL     1      -8.264   1.417 -25.417  1.00  0.00    -0.247 OA
BRANCH  16  18
ATOM     18  C   UNL     1      -6.910   0.485 -27.168  1.00  0.00     0.094 C 
ATOM     19  C   UNL     1      -5.969  -0.454 -27.349  1.00  0.00     0.016 C 
BRANCH  19  20
ATOM     20  C   UNL     1      -5.079  -0.512 -28.517  1.00  0.00    -0.021 A 
ATOM     21  C   UNL     1      -5.066   0.575 -29.407  1.00  0.00     0.058 A 
ATOM     22  C   UNL     1      -4.285  -1.637 -28.801  1.00  0.00     0.012 A 
ATOM     23  C   UNL     1      -4.252   0.535 -30.535  1.00  0.00     0.157 A 
ATOM     24  C   UNL     1      -3.471  -1.669 -29.936  1.00  0.00     0.051 A 
ATOM     25  C   UNL     1      -3.460  -0.580 -30.793  1.00  0.00     0.157 A 
BRANCH  23  26
ATOM     26  O   UNL     1      -4.197   1.571 -31.426  1.00  0.00    -0.504 OA
ATOM     27  H   UNL     1      -4.651   2.337 -31.033  1.00  0.00     0.293 HD
ENDBRANCH  23  26
BRANCH  25  28
ATOM     28  O   UNL     1      -2.665  -0.612 -31.902  1.00  0.00    -0.504 OA
ATOM     29  H   UNL     1      -3.210  -0.210 -32.607  1.00  0.00     0.293 HD
ENDBRANCH  25  28
ENDBRANCH  19  20
ENDBRANCH  16  18
ENDBRANCH  15  16
ENDBRANCH   3  15
BRANCH   4  30
ATOM     30  O   UNL     1     -10.459  -2.116 -25.174  1.00  0.00    -0.455 OA
BRANCH  30  31
ATOM     31  C   UNL     1     -10.513  -2.830 -26.324  1.00  0.00     0.331 C 
ATOM     32  O   UNL     1     -10.800  -4.013 -26.429  1.00  0.00    -0.247 OA
BRANCH  31  33
ATOM     33  C   UNL     1     -10.167  -2.004 -27.499  1.00  0.00     0.094 C 
ATOM     34  C   UNL     1      -9.341  -2.392 -28.483  1.00  0.00     0.016 C 
BRANCH  34  35
ATOM     35  C   UNL     1      -9.031  -1.555 -29.651  1.00  0.00    -0.021 A 
ATOM     36  C   UNL     1      -9.932  -0.542 -30.014  1.00  0.00     0.058 A 
ATOM     37  C   UNL     1      -7.888  -1.775 -30.438  1.00  0.00     0.012 A 
ATOM     38  C   UNL     1      -9.666   0.246 -31.130  1.00  0.00     0.157 A 
ATOM     39  C   UNL     1      -7.631  -0.980 -31.558  1.00  0.00     0.051 A 
ATOM     40  C   UNL     1      -8.522   0.027 -31.892  1.00  0.00     0.157 A 
BRANCH  38  41
ATOM     41  O   UNL     1     -10.505   1.254 -31.521  1.00  0.00    -0.504 OA
ATOM     42  H   UNL     1     -10.606   1.211 -32.488  1.00  0.00     0.293 HD
ENDBRANCH  38  41
BRANCH  40  43
ATOM     43  O   UNL     1      -8.271   0.803 -32.986  1.00  0.00    -0.504 OA
ATOM     44  H   UNL     1      -7.666   0.265 -33.536  1.00  0.00     0.293 HD
ENDBRANCH  40  43
ENDBRANCH  34  35
ENDBRANCH  31  33
ENDBRANCH  30  31
ENDBRANCH   4  30
TORSDOF 16
ENDMDL
MODEL 8
REMARK VINA RESULT:      -8.6      0.974      4.526
REMARK SMILES O=C(/C=C/c1ccc(O)c(O)c1)O[C@@H]1[C@H](O)C[C@@](O)(C(=O)O)C[C@H]1OC(=O)/C=C/c1ccc(O)c(O)c1
REMARK SMILES IDX 17 1 15 2 14 3 24 4 23 5 18 6 16 7 19 9 20 11 21 12 22 13
REMARK SMILES IDX 13 15 2 16 1 17 3 18 4 19 5 20 12 21 6 22 10 23 7 24 8 25
REMARK SMILES IDX 11 26 9 28 25 30 26 31 27 32 28 33 29 34 30 35 37 36 31 37
REMARK SMILES IDX 35 38 32 39 33 40 36 41 34 43
REMARK H PARENT 16 8 19 10 22 14 11 27 9 29 36 42 34 44
ROOT
ATOM      1  C   UNL     1      -9.937  -1.509 -22.066  1.00  0.00     0.083 C 
ATOM      2  C   UNL     1      -9.598  -0.145 -22.660  1.00  0.00     0.162 C 
ATOM      3  C   UNL     1      -8.493  -0.257 -23.725  1.00  0.00     0.246 C 
ATOM      4  C   UNL     1      -7.228  -0.922 -23.145  1.00  0.00     0.223 C 
ATOM      5  C   UNL     1      -7.559  -2.280 -22.517  1.00  0.00     0.097 C 
ATOM      6  C   UNL     1      -8.687  -2.189 -21.488  1.00  0.00     0.168 C 
ENDROOT
BRANCH   2   7
ATOM      7  O   UNL     1      -9.158   0.697 -21.582  1.00  0.00    -0.389 OA
ATOM      8  H   UNL     1      -8.951   0.101 -20.833  1.00  0.00     0.211 HD
ENDBRANCH   2   7
BRANCH   6   9
ATOM      9  O   UNL     1      -8.205  -1.469 -20.333  1.00  0.00    -0.378 OA
ATOM     10  H   UNL     1      -7.865  -0.600 -20.656  1.00  0.00     0.212 HD
ENDBRANCH   6   9
BRANCH   6  11
ATOM     11  C   UNL     1      -9.059  -3.600 -21.011  1.00  0.00     0.335 C 
ATOM     12  O   UNL     1      -9.394  -3.891 -19.873  1.00  0.00    -0.249 OA
BRANCH  11  13
ATOM     13  O   UNL     1      -8.981  -4.504 -22.020  1.00  0.00    -0.479 OA
ATOM     14  H   UNL     1      -8.303  -4.164 -22.656  1.00  0.00     0.296 HD
ENDBRANCH  11  13
ENDBRANCH   6  11
BRANCH   3  15
ATOM     15  O   UNL     1      -8.145   1.071 -24.177  1.00  0.00    -0.452 OA
BRANCH  15  16
ATOM     16  C   UNL     1      -8.715   1.468 -25.339  1.00  0.00     0.331 C 
ATOM     17  O   UNL     1      -9.089   2.595 -25.609  1.00  0.00    -0.247 OA
BRANCH  16  18
ATOM     18  C   UNL     1      -8.799   0.294 -26.228  1.00  0.00     0.094 C 
ATOM     19  C   UNL     1      -7.961   0.186 -27.271  1.00  0.00     0.016 C 
BRANCH  19  20
ATOM     20  C   UNL     1      -7.959  -0.943 -28.212  1.00  0.00    -0.021 A 
ATOM     21  C   UNL     1      -8.330  -2.212 -27.738  1.00  0.00     0.058 A 
ATOM     22  C   UNL     1      -7.547  -0.805 -29.548  1.00  0.00     0.012 A 
ATOM     23  C   UNL     1      -8.312  -3.304 -28.601  1.00  0.00     0.157 A 
ATOM     24  C   UNL     1      -7.532  -1.908 -30.408  1.00  0.00     0.051 A 
ATOM     25  C   UNL     1      -7.917  -3.148 -29.926  1.00  0.00     0.157 A 
BRANCH  23  26
ATOM     26  O   UNL     1      -8.674  -4.558 -28.191  1.00  0.00    -0.504 OA
ATOM     27  H   UNL     1      -8.759  -5.124 -28.977  1.00  0.00     0.293 HD
ENDBRANCH  23  26
BRANCH  25  28
ATOM     28  O   UNL     1      -7.902  -4.224 -30.766  1.00  0.00    -0.504 OA
ATOM     29  H   UNL     1      -7.487  -3.891 -31.586  1.00  0.00     0.293 HD
ENDBRANCH  25  28
ENDBRANCH  19  20
ENDBRANCH  16  18
ENDBRANCH  15  16
ENDBRANCH   3  15
BRANCH   4  30
ATOM     30  O   UNL     1      -6.288  -1.180 -24.215  1.00  0.00    -0.455 OA
BRANCH  30  31
ATOM     31  C   UNL     1      -5.228  -0.342 -24.314  1.00  0.00     0.331 C 
ATOM     32  O   UNL     1      -4.679   0.243 -23.392  1.00  0.00    -0.247 OA
BRANCH  31  33
ATOM     33  C   UNL     1      -4.780  -0.188 -25.713  1.00  0.00     0.094 C 
ATOM     34  C   UNL     1      -4.589  -1.208 -26.565  1.00  0.00     0.016 C 
BRANCH  34  35
ATOM     35  C   UNL     1      -4.159  -1.022 -27.959  1.00  0.00    -0.021 A 
ATOM     36  C   UNL     1      -4.167   0.273 -28.501  1.00  0.00     0.058 A 
ATOM     37  C   UNL     1      -3.793  -2.107 -28.773  1.00  0.00     0.012 A 
ATOM     38  C   UNL     1      -3.786   0.465 -29.826  1.00  0.00     0.157 A 
ATOM     39  C   UNL     1      -3.414  -1.904 -30.102  1.00  0.00     0.051 A 
ATOM     40  C   UNL     1      -3.411  -0.618 -30.616  1.00  0.00     0.157 A 
BRANCH  38  41
ATOM     41  O   UNL     1      -3.764   1.707 -30.400  1.00  0.00    -0.504 OA
ATOM     42  H   UNL     1      -3.013   2.202 -30.031  1.00  0.00     0.293 HD
ENDBRANCH  38  41
BRANCH  40  43
ATOM     43  O   UNL     1      -3.040  -0.420 -31.914  1.00  0.00    -0.504 OA
ATOM     44  H   UNL     1      -2.149  -0.819 -31.980  1.00  0.00     0.293 HD
ENDBRANCH  40  43
ENDBRANCH  34  35
ENDBRANCH  31  33
ENDBRANCH  30  31
ENDBRANCH   4  30
TORSDOF 16
ENDMDL
MODEL 9
REMARK VINA RESULT:      -8.2      2.985      5.654
REMARK SMILES O=C(/C=C/c1ccc(O)c(O)c1)O[C@@H]1[C@H](O)C[C@@](O)(C(=O)O)C[C@H]1OC(=O)/C=C/c1ccc(O)c(O)c1
REMARK SMILES IDX 17 1 15 2 14 3 24 4 23 5 18 6 16 7 19 9 20 11 21 12 22 13
REMARK SMILES IDX 13 15 2 16 1 17 3 18 4 19 5 20 12 21 6 22 10 23 7 24 8 25
REMARK SMILES IDX 11 26 9 28 25 30 26 31 27 32 28 33 29 34 30 35 37 36 31 37
REMARK SMILES IDX 35 38 32 39 33 40 36 41 34 43
REMARK H PARENT 16 8 19 10 22 14 11 27 9 29 36 42 34 44
ROOT
ATOM      1  C   UNL     1     -10.529  -5.235 -24.793  1.00  0.00     0.083 C 
ATOM      2  C   UNL     1     -10.904  -5.310 -26.271  1.00  0.00     0.162 C 
ATOM      3  C   UNL     1     -10.121  -4.278 -27.100  1.00  0.00     0.246 C 
ATOM      4  C   UNL     1     -10.339  -2.850 -26.560  1.00  0.00     0.223 C 
ATOM      5  C   UNL     1      -9.995  -2.767 -25.070  1.00  0.00     0.097 C 
ATOM      6  C   UNL     1     -10.734  -3.817 -24.240  1.00  0.00     0.168 C 
ENDROOT
BRANCH   2   7
ATOM      7  O   UNL     1     -12.315  -5.051 -26.370  1.00  0.00    -0.389 OA
ATOM      8  H   UNL     1     -12.425  -4.083 -26.271  1.00  0.00     0.211 HD
ENDBRANCH   2   7
BRANCH   6   9
ATOM      9  O   UNL     1     -12.138  -3.481 -24.210  1.00  0.00    -0.378 OA
ATOM     10  H   UNL     1     -12.479  -3.584 -25.131  1.00  0.00     0.212 HD
ENDBRANCH   6   9
BRANCH   6  11
ATOM     11  C   UNL     1     -10.234  -3.768 -22.789  1.00  0.00     0.335 C 
ATOM     12  O   UNL     1     -10.533  -2.913 -21.970  1.00  0.00    -0.249 OA
BRANCH  11  13
ATOM     13  O   UNL     1      -9.410  -4.812 -22.511  1.00  0.00    -0.479 OA
ATOM     14  H   UNL     1      -8.496  -4.442 -22.438  1.00  0.00     0.296 HD
ENDBRANCH  11  13
ENDBRANCH   6  11
BRANCH   3  15
ATOM     15  O   UNL     1     -10.589  -4.327 -28.467  1.00  0.00    -0.452 OA
BRANCH  15  16
ATOM     16  C   UNL     1      -9.678  -4.712 -29.390  1.00  0.00     0.331 C 
ATOM     17  O   UNL     1      -9.378  -5.859 -29.670  1.00  0.00    -0.247 OA
BRANCH  16  18
ATOM     18  C   UNL     1      -9.115  -3.496 -30.008  1.00  0.00     0.094 C 
ATOM     19  C   UNL     1      -9.903  -2.693 -30.738  1.00  0.00     0.016 C 
BRANCH  19  20
ATOM     20  C   UNL     1      -9.441  -1.458 -31.389  1.00  0.00    -0.021 A 
ATOM     21  C   UNL     1     -10.401  -0.559 -31.882  1.00  0.00     0.058 A 
ATOM     22  C   UNL     1      -8.078  -1.177 -31.582  1.00  0.00     0.012 A 
ATOM     23  C   UNL     1      -9.992   0.605 -32.526  1.00  0.00     0.157 A 
ATOM     24  C   UNL     1      -7.675  -0.006 -32.231  1.00  0.00     0.051 A 
ATOM     25  C   UNL     1      -8.638   0.876 -32.695  1.00  0.00     0.157 A 
BRANCH  23  26
ATOM     26  O   UNL     1     -10.888   1.516 -33.014  1.00  0.00    -0.504 OA
ATOM     27  H   UNL     1     -11.376   1.102 -33.747  1.00  0.00     0.293 HD
ENDBRANCH  23  26
BRANCH  25  28
ATOM     28  O   UNL     1      -8.244   2.020 -33.328  1.00  0.00    -0.504 OA
ATOM     29  H   UNL     1      -8.429   1.854 -34.273  1.00  0.00     0.293 HD
ENDBRANCH  25  28
ENDBRANCH  19  20
ENDBRANCH  16  18
ENDBRANCH  15  16
ENDBRANCH   3  15
BRANCH   4  30
ATOM     30  O   UNL     1      -9.445  -1.937 -27.241  1.00  0.00    -0.455 OA
BRANCH  30  31
ATOM     31  C   UNL     1      -9.997  -0.817 -27.765  1.00  0.00     0.331 C 
ATOM     32  O   UNL     1     -11.191  -0.576 -27.864  1.00  0.00    -0.247 OA
BRANCH  31  33
ATOM     33  C   UNL     1      -8.968   0.134 -28.235  1.00  0.00     0.094 C 
ATOM     34  C   UNL     1      -7.647  -0.104 -28.210  1.00  0.00     0.016 C 
BRANCH  34  35
ATOM     35  C   UNL     1      -6.647   0.854 -28.702  1.00  0.00    -0.021 A 
ATOM     36  C   UNL     1      -5.449   0.363 -29.244  1.00  0.00     0.058 A 
ATOM     37  C   UNL     1      -6.837   2.243 -28.597  1.00  0.00     0.012 A 
ATOM     38  C   UNL     1      -4.481   1.256 -29.694  1.00  0.00     0.157 A 
ATOM     39  C   UNL     1      -5.858   3.131 -29.050  1.00  0.00     0.051 A 
ATOM     40  C   UNL     1      -4.689   2.629 -29.597  1.00  0.00     0.157 A 
BRANCH  38  41
ATOM     41  O   UNL     1      -3.302   0.830 -30.240  1.00  0.00    -0.504 OA
ATOM     42  H   UNL     1      -2.641   0.764 -29.530  1.00  0.00     0.293 HD
ENDBRANCH  38  41
BRANCH  40  43
ATOM     43  O   UNL     1      -3.734   3.497 -30.040  1.00  0.00    -0.504 OA
ATOM     44  H   UNL     1      -3.225   3.733 -29.237  1.00  0.00     0.293 HD
ENDBRANCH  40  43
ENDBRANCH  34  35
ENDBRANCH  31  33
ENDBRANCH  30  31
ENDBRANCH   4  30
TORSDOF 16
ENDMDL
MODEL 10
REMARK VINA RESULT:      -8.2      2.398      8.171
REMARK SMILES O=C(/C=C/c1ccc(O)c(O)c1)O[C@@H]1[C@H](O)C[C@@](O)(C(=O)O)C[C@H]1OC(=O)/C=C/c1ccc(O)c(O)c1
REMARK SMILES IDX 17 1 15 2 14 3 24 4 23 5 18 6 16 7 19 9 20 11 21 12 22 13
REMARK SMILES IDX 13 15 2 16 1 17 3 18 4 19 5 20 12 21 6 22 10 23 7 24 8 25
REMARK SMILES IDX 11 26 9 28 25 30 26 31 27 32 28 33 29 34 30 35 37 36 31 37
REMARK SMILES IDX 35 38 32 39 33 40 36 41 34 43
REMARK H PARENT 16 8 19 10 22 14 11 27 9 29 36 42 34 44
ROOT
ATOM      1  C   UNL     1      -4.253   1.043 -28.959  1.00  0.00     0.083 C 
ATOM      2  C   UNL     1      -5.675   1.339 -28.489  1.00  0.00     0.162 C 
ATOM      3  C   UNL     1      -6.515   0.053 -28.404  1.00  0.00     0.246 C 
ATOM      4  C   UNL     1      -6.538  -0.687 -29.757  1.00  0.00     0.223 C 
ATOM      5  C   UNL     1      -5.116  -0.963 -30.257  1.00  0.00     0.097 C 
ATOM      6  C   UNL     1      -4.257   0.301 -30.304  1.00  0.00     0.168 C 
ENDROOT
BRANCH   2   7
ATOM      7  O   UNL     1      -6.261   2.247 -29.436  1.00  0.00    -0.389 OA
ATOM      8  H   UNL     1      -5.551   2.870 -29.697  1.00  0.00     0.211 HD
ENDBRANCH   2   7
BRANCH   6   9
ATOM      9  O   UNL     1      -4.749   1.158 -31.356  1.00  0.00    -0.378 OA
ATOM     10  H   UNL     1      -4.622   0.674 -32.207  1.00  0.00     0.212 HD
ENDBRANCH   6   9
BRANCH   6  11
ATOM     11  C   UNL     1      -2.814  -0.075 -30.673  1.00  0.00     0.335 C 
ATOM     12  O   UNL     1      -1.836   0.112 -29.965  1.00  0.00    -0.249 OA
BRANCH  11  13
ATOM     13  O   UNL     1      -2.749  -0.658 -31.897  1.00  0.00    -0.479 OA
ATOM     14  H   UNL     1      -3.037  -1.597 -31.782  1.00  0.00     0.296 HD
ENDBRANCH  11  13
ENDBRANCH   6  11
BRANCH   3  15
ATOM     15  O   UNL     1      -7.872   0.406 -28.053  1.00  0.00    -0.452 OA
BRANCH  15  16
ATOM     16  C   UNL     1      -8.041   0.957 -26.829  1.00  0.00     0.331 C 
ATOM     17  O   UNL     1      -7.905   2.134 -26.544  1.00  0.00    -0.247 OA
BRANCH  16  18
ATOM     18  C   UNL     1      -8.428  -0.118 -25.896  1.00  0.00     0.094 C 
ATOM     19  C   UNL     1      -7.733  -0.298 -24.762  1.00  0.00     0.016 C 
BRANCH  19  20
ATOM     20  C   UNL     1      -8.039  -1.335 -23.766  1.00  0.00    -0.021 A 
ATOM     21  C   UNL     1      -9.359  -1.808 -23.672  1.00  0.00     0.058 A 
ATOM     22  C   UNL     1      -7.071  -1.827 -22.873  1.00  0.00     0.012 A 
ATOM     23  C   UNL     1      -9.681  -2.771 -22.720  1.00  0.00     0.157 A 
ATOM     24  C   UNL     1      -7.405  -2.793 -21.920  1.00  0.00     0.051 A 
ATOM     25  C   UNL     1      -8.708  -3.259 -21.854  1.00  0.00     0.157 A 
BRANCH  23  26
ATOM     26  O   UNL     1     -10.949  -3.269 -22.596  1.00  0.00    -0.504 OA
ATOM     27  H   UNL     1     -11.425  -2.734 -21.937  1.00  0.00     0.293 HD
ENDBRANCH  23  26
BRANCH  25  28
ATOM     28  O   UNL     1      -9.033  -4.202 -20.923  1.00  0.00    -0.504 OA
ATOM     29  H   UNL     1      -8.180  -4.454 -20.519  1.00  0.00     0.293 HD
ENDBRANCH  25  28
ENDBRANCH  19  20
ENDBRANCH  16  18
ENDBRANCH  15  16
ENDBRANCH   3  15
BRANCH   4  30
ATOM     30  O   UNL     1      -7.175  -1.976 -29.589  1.00  0.00    -0.455 OA
BRANCH  30  31
ATOM     31  C   UNL     1      -8.308  -2.195 -30.298  1.00  0.00     0.331 C 
ATOM     32  O   UNL     1      -8.514  -1.863 -31.456  1.00  0.00    -0.247 OA
BRANCH  31  33
ATOM     33  C   UNL     1      -9.326  -2.905 -29.497  1.00  0.00     0.094 C 
ATOM     34  C   UNL     1      -9.384  -2.889 -28.156  1.00  0.00     0.016 C 
BRANCH  34  35
ATOM     35  C   UNL     1     -10.422  -3.590 -27.387  1.00  0.00    -0.021 A 
ATOM     36  C   UNL     1     -11.198  -2.858 -26.475  1.00  0.00     0.058 A 
ATOM     37  C   UNL     1     -10.621  -4.977 -27.503  1.00  0.00     0.012 A 
ATOM     38  C   UNL     1     -12.170  -3.510 -25.721  1.00  0.00     0.157 A 
ATOM     39  C   UNL     1     -11.598  -5.622 -26.741  1.00  0.00     0.051 A 
ATOM     40  C   UNL     1     -12.366  -4.881 -25.858  1.00  0.00     0.157 A 
BRANCH  38  41
ATOM     41  O   UNL     1     -12.960  -2.842 -24.827  1.00  0.00    -0.504 OA
ATOM     42  H   UNL     1     -13.646  -3.454 -24.507  1.00  0.00     0.293 HD
ENDBRANCH  38  41
BRANCH  40  43
ATOM     43  O   UNL     1     -13.320  -5.512 -25.113  1.00  0.00    -0.504 OA
ATOM     44  H   UNL     1     -13.743  -4.796 -24.598  1.00  0.00     0.293 HD
ENDBRANCH  40  43
ENDBRANCH  34  35
ENDBRANCH  31  33
ENDBRANCH  30  31
ENDBRANCH   4  30
TORSDOF 16
ENDMDL
