MODEL 1
REMARK VINA RESULT:      -8.3      0.000      0.000
REMARK SMILES O=C(/C=C/c1ccc(O)c(O)c1)O[C@@H]1C[C@](O)(C(=O)O)C[C@@H](O)[C@H]1O
REMARK SMILES IDX 2 1 1 2 13 3 14 4 21 5 22 6 16 7 24 8 15 9 23 10 17 12 18 14
REMARK SMILES IDX 19 15 20 16 25 18 3 20 4 21 5 22 12 23 6 24 10 25 7 26 8 27
REMARK SMILES IDX 11 28 9 30
REMARK H PARENT 23 11 17 13 20 17 25 19 11 29 9 31
ROOT
ATOM      1  C   UNL     1      -5.007   3.026 -30.362  1.00  0.00     0.331 C 
ATOM      2  O   UNL     1      -4.857   4.229 -30.526  1.00  0.00    -0.247 OA
ENDROOT
BRANCH   1   3
ATOM      3  O   UNL     1      -4.055   2.161 -29.939  1.00  0.00    -0.456 OA
BRANCH   3   4
ATOM      4  C   UNL     1      -4.519   0.837 -29.602  1.00  0.00     0.211 C 
ATOM      5  C   UNL     1      -3.985  -1.739 -28.213  1.00  0.00     0.082 C 
ATOM      6  C   UNL     1      -3.853  -1.621 -29.731  1.00  0.00     0.150 C 
ATOM      7  C   UNL     1      -4.970  -0.710 -27.643  1.00  0.00     0.167 C 
ATOM      8  C   UNL     1      -3.526  -0.187 -30.182  1.00  0.00     0.184 C 
ATOM      9  C   UNL     1      -4.604   0.709 -28.077  1.00  0.00     0.095 C 
BRANCH   6  10
ATOM     10  O   UNL     1      -5.062  -2.041 -30.384  1.00  0.00    -0.390 OA
ATOM     11  H   UNL     1      -5.152  -3.010 -30.272  1.00  0.00     0.211 HD
ENDBRANCH   6  10
BRANCH   7  12
ATOM     12  O   UNL     1      -6.291  -1.037 -28.130  1.00  0.00    -0.378 OA
ATOM     13  H   UNL     1      -6.464  -1.975 -27.899  1.00  0.00     0.212 HD
ENDBRANCH   7  12
BRANCH   7  14
ATOM     14  C   UNL     1      -4.975  -0.829 -26.111  1.00  0.00     0.335 C 
ATOM     15  O   UNL     1      -5.390  -1.789 -25.483  1.00  0.00    -0.249 OA
BRANCH  14  16
ATOM     16  O   UNL     1      -4.474   0.286 -25.521  1.00  0.00    -0.479 OA
ATOM     17  H   UNL     1      -3.570   0.100 -25.178  1.00  0.00     0.296 HD
ENDBRANCH  14  16
ENDBRANCH   7  14
BRANCH   8  18
ATOM     18  O   UNL     1      -3.566  -0.137 -31.615  1.00  0.00    -0.387 OA
ATOM     19  H   UNL     1      -3.738  -1.055 -31.910  1.00  0.00     0.211 HD
ENDBRANCH   8  18
ENDBRANCH   3   4
ENDBRANCH   1   3
BRANCH   1  20
ATOM     20  C   UNL     1      -6.283   2.345 -30.659  1.00  0.00     0.094 C 
ATOM     21  C   UNL     1      -6.730   2.090 -31.899  1.00  0.00     0.016 C 
BRANCH  21  22
ATOM     22  C   UNL     1      -7.997   1.400 -32.174  1.00  0.00    -0.021 A 
ATOM     23  C   UNL     1      -8.929   1.129 -31.158  1.00  0.00     0.058 A 
ATOM     24  C   UNL     1      -8.304   1.056 -33.499  1.00  0.00     0.012 A 
ATOM     25  C   UNL     1     -10.130   0.503 -31.480  1.00  0.00     0.157 A 
ATOM     26  C   UNL     1      -9.512   0.425 -33.812  1.00  0.00     0.051 A 
ATOM     27  C   UNL     1     -10.414   0.152 -32.796  1.00  0.00     0.157 A 
BRANCH  25  28
ATOM     28  O   UNL     1     -11.072   0.215 -30.530  1.00  0.00    -0.504 OA
ATOM     29  H   UNL     1     -10.809  -0.604 -30.077  1.00  0.00     0.293 HD
ENDBRANCH  25  28
BRANCH  27  30
ATOM     30  O   UNL     1     -11.595  -0.461 -33.100  1.00  0.00    -0.504 OA
ATOM     31  H   UNL     1     -12.241   0.270 -33.162  1.00  0.00     0.293 HD
ENDBRANCH  27  30
ENDBRANCH  21  22
ENDBRANCH   1  20
TORSDOF 11
ENDMDL
MODEL 2
REMARK VINA RESULT:      -8.1      1.683      4.208
REMARK SMILES O=C(/C=C/c1ccc(O)c(O)c1)O[C@@H]1C[C@](O)(C(=O)O)C[C@@H](O)[C@H]1O
REMARK SMILES IDX 2 1 1 2 13 3 14 4 21 5 22 6 16 7 24 8 15 9 23 10 17 12 18 14
REMARK SMILES IDX 19 15 20 16 25 18 3 20 4 21 5 22 12 23 6 24 10 25 7 26 8 27
REMARK SMILES IDX 11 28 9 30
REMARK H PARENT 23 11 17 13 20 17 25 19 11 29 9 31
ROOT
ATOM      1  C   UNL     1      -7.111  -1.124 -27.013  1.00  0.00     0.331 C 
ATOM      2  O   UNL     1      -7.722  -1.428 -25.998  1.00  0.00    -0.247 OA
ENDROOT
BRANCH   1   3
ATOM      3  O   UNL     1      -5.793  -1.340 -27.238  1.00  0.00    -0.456 OA
BRANCH   3   4
ATOM      4  C   UNL     1      -5.077  -0.248 -27.853  1.00  0.00     0.211 C 
ATOM      5  C   UNL     1      -2.570   0.710 -29.135  1.00  0.00     0.082 C 
ATOM      6  C   UNL     1      -2.904   1.076 -27.690  1.00  0.00     0.150 C 
ATOM      7  C   UNL     1      -3.832   0.422 -29.958  1.00  0.00     0.167 C 
ATOM      8  C   UNL     1      -3.815   0.035 -27.017  1.00  0.00     0.184 C 
ATOM      9  C   UNL     1      -4.703  -0.639 -29.287  1.00  0.00     0.095 C 
BRANCH   6  10
ATOM     10  O   UNL     1      -3.547   2.359 -27.622  1.00  0.00    -0.390 OA
ATOM     11  H   UNL     1      -3.237   2.818 -26.814  1.00  0.00     0.211 HD
ENDBRANCH   6  10
BRANCH   7  12
ATOM     12  O   UNL     1      -4.580   1.653 -30.078  1.00  0.00    -0.378 OA
ATOM     13  H   UNL     1      -4.515   2.120 -29.218  1.00  0.00     0.212 HD
ENDBRANCH   7  12
BRANCH   7  14
ATOM     14  C   UNL     1      -3.410  -0.028 -31.366  1.00  0.00     0.335 C 
ATOM     15  O   UNL     1      -3.095  -1.165 -31.675  1.00  0.00    -0.249 OA
BRANCH  14  16
ATOM     16  O   UNL     1      -3.406   1.010 -32.241  1.00  0.00    -0.479 OA
ATOM     17  H   UNL     1      -2.697   0.874 -32.911  1.00  0.00     0.296 HD
ENDBRANCH  14  16
ENDBRANCH   7  14
BRANCH   8  18
ATOM     18  O   UNL     1      -4.196   0.526 -25.724  1.00  0.00    -0.387 OA
ATOM     19  H   UNL     1      -3.547   1.227 -25.503  1.00  0.00     0.211 HD
ENDBRANCH   8  18
ENDBRANCH   3   4
ENDBRANCH   1   3
BRANCH   1  20
ATOM     20  C   UNL     1      -7.758  -0.419 -28.138  1.00  0.00     0.094 C 
ATOM     21  C   UNL     1      -8.388  -1.035 -29.151  1.00  0.00     0.016 C 
BRANCH  21  22
ATOM     22  C   UNL     1      -9.035  -0.315 -30.254  1.00  0.00    -0.021 A 
ATOM     23  C   UNL     1     -10.111  -0.866 -30.970  1.00  0.00     0.058 A 
ATOM     24  C   UNL     1      -8.600   0.984 -30.559  1.00  0.00     0.012 A 
ATOM     25  C   UNL     1     -10.710  -0.126 -31.985  1.00  0.00     0.157 A 
ATOM     26  C   UNL     1      -9.206   1.719 -31.583  1.00  0.00     0.051 A 
ATOM     27  C   UNL     1     -10.256   1.154 -32.288  1.00  0.00     0.157 A 
BRANCH  25  28
ATOM     28  O   UNL     1     -11.759  -0.615 -32.714  1.00  0.00    -0.504 OA
ATOM     29  H   UNL     1     -11.907  -0.025 -33.472  1.00  0.00     0.293 HD
ENDBRANCH  25  28
BRANCH  27  30
ATOM     30  O   UNL     1     -10.851   1.872 -33.285  1.00  0.00    -0.504 OA
ATOM     31  H   UNL     1     -10.172   2.520 -33.560  1.00  0.00     0.293 HD
ENDBRANCH  27  30
ENDBRANCH  21  22
ENDBRANCH   1  20
TORSDOF 11
ENDMDL
MODEL 3
REMARK VINA RESULT:      -7.9      3.802      4.552
REMARK SMILES O=C(/C=C/c1ccc(O)c(O)c1)O[C@@H]1C[C@](O)(C(=O)O)C[C@@H](O)[C@H]1O
REMARK SMILES IDX 2 1 1 2 13 3 14 4 21 5 22 6 16 7 24 8 15 9 23 10 17 12 18 14
REMARK SMILES IDX 19 15 20 16 25 18 3 20 4 21 5 22 12 23 6 24 10 25 7 26 8 27
REMARK SMILES IDX 11 28 9 30
REMARK H PARENT 23 11 17 13 20 17 25 19 11 29 9 31
ROOT
ATOM      1  C   UNL     1      -7.650  -0.464 -30.979  1.00  0.00     0.331 C 
ATOM      2  O   UNL     1      -7.442  -0.320 -32.176  1.00  0.00    -0.247 OA
ENDROOT
BRANCH   1   3
ATOM      3  O   UNL     1      -7.019   0.198 -29.981  1.00  0.00    -0.456 OA
BRANCH   3   4
ATOM      4  C   UNL     1      -6.014  -0.554 -29.269  1.00  0.00     0.211 C 
ATOM      5  C   UNL     1      -3.753  -0.529 -27.335  1.00  0.00     0.082 C 
ATOM      6  C   UNL     1      -3.503  -0.647 -28.838  1.00  0.00     0.150 C 
ATOM      7  C   UNL     1      -5.138  -1.062 -26.944  1.00  0.00     0.167 C 
ATOM      8  C   UNL     1      -4.629  -0.014 -29.673  1.00  0.00     0.184 C 
ATOM      9  C   UNL     1      -6.242  -0.393 -27.762  1.00  0.00     0.095 C 
BRANCH   6  10
ATOM     10  O   UNL     1      -3.363  -2.023 -29.228  1.00  0.00    -0.390 OA
ATOM     11  H   UNL     1      -2.691  -2.441 -28.650  1.00  0.00     0.211 HD
ENDBRANCH   6  10
BRANCH   7  12
ATOM     12  O   UNL     1      -5.155  -2.486 -27.185  1.00  0.00    -0.378 OA
ATOM     13  H   UNL     1      -5.756  -2.888 -26.522  1.00  0.00     0.212 HD
ENDBRANCH   7  12
BRANCH   7  14
ATOM     14  C   UNL     1      -5.350  -0.823 -25.441  1.00  0.00     0.335 C 
ATOM     15  O   UNL     1      -5.998  -1.542 -24.700  1.00  0.00    -0.249 OA
BRANCH  14  16
ATOM     16  O   UNL     1      -4.738   0.315 -25.025  1.00  0.00    -0.479 OA
ATOM     17  H   UNL     1      -5.328   0.799 -24.402  1.00  0.00     0.296 HD
ENDBRANCH  14  16
ENDBRANCH   7  14
BRANCH   8  18
ATOM     18  O   UNL     1      -4.388  -0.298 -31.058  1.00  0.00    -0.387 OA
ATOM     19  H   UNL     1      -3.414  -0.350 -31.155  1.00  0.00     0.211 HD
ENDBRANCH   8  18
ENDBRANCH   3   4
ENDBRANCH   1   3
BRANCH   1  20
ATOM     20  C   UNL     1      -8.622  -1.449 -30.463  1.00  0.00     0.094 C 
ATOM     21  C   UNL     1      -8.297  -2.686 -30.053  1.00  0.00     0.016 C 
BRANCH  21  22
ATOM     22  C   UNL     1      -9.278  -3.646 -29.532  1.00  0.00    -0.021 A 
ATOM     23  C   UNL     1      -9.939  -4.560 -30.370  1.00  0.00     0.058 A 
ATOM     24  C   UNL     1      -9.514  -3.685 -28.149  1.00  0.00     0.012 A 
ATOM     25  C   UNL     1     -10.834  -5.471 -29.818  1.00  0.00     0.157 A 
ATOM     26  C   UNL     1     -10.417  -4.603 -27.604  1.00  0.00     0.051 A 
ATOM     27  C   UNL     1     -11.071  -5.487 -28.447  1.00  0.00     0.157 A 
BRANCH  25  28
ATOM     28  O   UNL     1     -11.506  -6.381 -30.588  1.00  0.00    -0.504 OA
ATOM     29  H   UNL     1     -12.298  -6.668 -30.103  1.00  0.00     0.293 HD
ENDBRANCH  25  28
BRANCH  27  30
ATOM     30  O   UNL     1     -11.951  -6.386 -27.916  1.00  0.00    -0.504 OA
ATOM     31  H   UNL     1     -12.391  -5.899 -27.192  1.00  0.00     0.293 HD
ENDBRANCH  27  30
ENDBRANCH  21  22
ENDBRANCH   1  20
TORSDOF 11
ENDMDL
MODEL 4
REMARK VINA RESULT:      -7.8      5.441      7.227
REMARK SMILES O=C(/C=C/c1ccc(O)c(O)c1)O[C@@H]1C[C@](O)(C(=O)O)C[C@@H](O)[C@H]1O
REMARK SMILES IDX 2 1 1 2 13 3 14 4 21 5 22 6 16 7 24 8 15 9 23 10 17 12 18 14
REMARK SMILES IDX 19 15 20 16 25 18 3 20 4 21 5 22 12 23 6 24 10 25 7 26 8 27
REMARK SMILES IDX 11 28 9 30
REMARK H PARENT 23 11 17 13 20 17 25 19 11 29 9 31
ROOT
ATOM      1  C   UNL     1     -10.011  -4.981 -29.874  1.00  0.00     0.331 C 
ATOM      2  O   UNL     1     -10.679  -5.808 -30.480  1.00  0.00    -0.247 OA
ENDROOT
BRANCH   1   3
ATOM      3  O   UNL     1      -9.668  -5.046 -28.567  1.00  0.00    -0.456 OA
BRANCH   3   4
ATOM      4  C   UNL     1     -10.727  -4.767 -27.627  1.00  0.00     0.211 C 
ATOM      5  C   UNL     1     -11.610  -4.661 -24.788  1.00  0.00     0.082 C 
ATOM      6  C   UNL     1     -12.034  -5.810 -25.702  1.00  0.00     0.150 C 
ATOM      7  C   UNL     1     -11.303  -3.384 -25.581  1.00  0.00     0.167 C 
ATOM      8  C   UNL     1     -11.029  -6.056 -26.841  1.00  0.00     0.184 C 
ATOM      9  C   UNL     1     -10.278  -3.646 -26.683  1.00  0.00     0.095 C 
BRANCH   6  10
ATOM     10  O   UNL     1     -13.325  -5.555 -26.279  1.00  0.00    -0.390 OA
ATOM     11  H   UNL     1     -14.010  -5.786 -25.617  1.00  0.00     0.211 HD
ENDBRANCH   6  10
BRANCH   7  12
ATOM     12  O   UNL     1     -12.537  -2.916 -26.172  1.00  0.00    -0.378 OA
ATOM     13  H   UNL     1     -12.605  -1.955 -25.986  1.00  0.00     0.212 HD
ENDBRANCH   7  12
BRANCH   7  14
ATOM     14  C   UNL     1     -10.796  -2.309 -24.607  1.00  0.00     0.335 C 
ATOM     15  O   UNL     1      -9.683  -1.811 -24.627  1.00  0.00    -0.249 OA
BRANCH  14  16
ATOM     16  O   UNL     1     -11.739  -1.984 -23.686  1.00  0.00    -0.479 OA
ATOM     17  H   UNL     1     -12.449  -2.666 -23.686  1.00  0.00     0.296 HD
ENDBRANCH  14  16
ENDBRANCH   7  14
BRANCH   8  18
ATOM     18  O   UNL     1     -11.574  -7.043 -27.727  1.00  0.00    -0.387 OA
ATOM     19  H   UNL     1     -12.526  -6.829 -27.814  1.00  0.00     0.211 HD
ENDBRANCH   8  18
ENDBRANCH   3   4
ENDBRANCH   1   3
BRANCH   1  20
ATOM     20  C   UNL     1      -9.518  -3.746 -30.517  1.00  0.00     0.094 C 
ATOM     21  C   UNL     1     -10.296  -2.698 -30.830  1.00  0.00     0.016 C 
BRANCH  21  22
ATOM     22  C   UNL     1      -9.783  -1.473 -31.458  1.00  0.00    -0.021 A 
ATOM     23  C   UNL     1     -10.640  -0.448 -31.894  1.00  0.00     0.058 A 
ATOM     24  C   UNL     1      -8.394  -1.303 -31.571  1.00  0.00     0.012 A 
ATOM     25  C   UNL     1     -10.098   0.706 -32.452  1.00  0.00     0.157 A 
ATOM     26  C   UNL     1      -7.860  -0.141 -32.135  1.00  0.00     0.051 A 
ATOM     27  C   UNL     1      -8.720   0.853 -32.573  1.00  0.00     0.157 A 
BRANCH  25  28
ATOM     28  O   UNL     1     -10.887   1.733 -32.894  1.00  0.00    -0.504 OA
ATOM     29  H   UNL     1     -10.370   2.268 -33.520  1.00  0.00     0.293 HD
ENDBRANCH  25  28
BRANCH  27  30
ATOM     30  O   UNL     1      -8.200   1.990 -33.121  1.00  0.00    -0.504 OA
ATOM     31  H   UNL     1      -7.291   1.742 -33.384  1.00  0.00     0.293 HD
ENDBRANCH  27  30
ENDBRANCH  21  22
ENDBRANCH   1  20
TORSDOF 11
ENDMDL
MODEL 5
REMARK VINA RESULT:      -7.8      4.377      6.863
REMARK SMILES O=C(/C=C/c1ccc(O)c(O)c1)O[C@@H]1C[C@](O)(C(=O)O)C[C@@H](O)[C@H]1O
REMARK SMILES IDX 2 1 1 2 13 3 14 4 21 5 22 6 16 7 24 8 15 9 23 10 17 12 18 14
REMARK SMILES IDX 19 15 20 16 25 18 3 20 4 21 5 22 12 23 6 24 10 25 7 26 8 27
REMARK SMILES IDX 11 28 9 30
REMARK H PARENT 23 11 17 13 20 17 25 19 11 29 9 31
ROOT
ATOM      1  C   UNL     1      -6.905  -2.114 -29.268  1.00  0.00     0.331 C 
ATOM      2  O   UNL     1      -5.868  -1.866 -28.669  1.00  0.00    -0.247 OA
ENDROOT
BRANCH   1   3
ATOM      3  O   UNL     1      -7.126  -1.903 -30.587  1.00  0.00    -0.456 OA
BRANCH   3   4
ATOM      4  C   UNL     1      -7.452  -0.547 -30.958  1.00  0.00     0.211 C 
ATOM      5  C   UNL     1      -7.929   1.420 -33.137  1.00  0.00     0.082 C 
ATOM      6  C   UNL     1      -6.614   1.411 -32.359  1.00  0.00     0.150 C 
ATOM      7  C   UNL     1      -9.085   0.842 -32.311  1.00  0.00     0.167 C 
ATOM      8  C   UNL     1      -6.283   0.024 -31.782  1.00  0.00     0.184 C 
ATOM      9  C   UNL     1      -8.746  -0.549 -31.778  1.00  0.00     0.095 C 
BRANCH   6  10
ATOM     10  O   UNL     1      -6.651   2.359 -31.280  1.00  0.00    -0.390 OA
ATOM     11  H   UNL     1      -6.295   3.211 -31.605  1.00  0.00     0.211 HD
ENDBRANCH   6  10
BRANCH   7  12
ATOM     12  O   UNL     1      -9.335   1.735 -31.203  1.00  0.00    -0.378 OA
ATOM     13  H   UNL     1      -9.596   2.603 -31.579  1.00  0.00     0.212 HD
ENDBRANCH   7  12
BRANCH   7  14
ATOM     14  C   UNL     1     -10.345   0.799 -33.191  1.00  0.00     0.335 C 
ATOM     15  O   UNL     1     -10.666  -0.130 -33.914  1.00  0.00    -0.249 OA
BRANCH  14  16
ATOM     16  O   UNL     1     -11.065   1.944 -33.088  1.00  0.00    -0.479 OA
ATOM     17  H   UNL     1     -11.753   1.841 -32.391  1.00  0.00     0.296 HD
ENDBRANCH  14  16
ENDBRANCH   7  14
BRANCH   8  18
ATOM     18  O   UNL     1      -5.120   0.139 -30.951  1.00  0.00    -0.387 OA
ATOM     19  H   UNL     1      -4.361   0.231 -31.564  1.00  0.00     0.211 HD
ENDBRANCH   8  18
ENDBRANCH   3   4
ENDBRANCH   1   3
BRANCH   1  20
ATOM     20  C   UNL     1      -8.098  -2.655 -28.585  1.00  0.00     0.094 C 
ATOM     21  C   UNL     1      -8.599  -3.881 -28.803  1.00  0.00     0.016 C 
BRANCH  21  22
ATOM     22  C   UNL     1      -9.780  -4.405 -28.104  1.00  0.00    -0.021 A 
ATOM     23  C   UNL     1     -10.553  -3.602 -27.250  1.00  0.00     0.058 A 
ATOM     24  C   UNL     1     -10.174  -5.730 -28.346  1.00  0.00     0.012 A 
ATOM     25  C   UNL     1     -11.682  -4.140 -26.639  1.00  0.00     0.157 A 
ATOM     26  C   UNL     1     -11.308  -6.263 -27.726  1.00  0.00     0.051 A 
ATOM     27  C   UNL     1     -12.051  -5.461 -26.875  1.00  0.00     0.157 A 
BRANCH  25  28
ATOM     28  O   UNL     1     -12.469  -3.402 -25.798  1.00  0.00    -0.504 OA
ATOM     29  H   UNL     1     -12.143  -3.523 -24.890  1.00  0.00     0.293 HD
ENDBRANCH  25  28
BRANCH  27  30
ATOM     30  O   UNL     1     -13.160  -5.978 -26.271  1.00  0.00    -0.504 OA
ATOM     31  H   UNL     1     -13.407  -5.313 -25.598  1.00  0.00     0.293 HD
ENDBRANCH  27  30
ENDBRANCH  21  22
ENDBRANCH   1  20
TORSDOF 11
ENDMDL
MODEL 6
REMARK VINA RESULT:      -7.7      4.625      7.748
REMARK SMILES O=C(/C=C/c1ccc(O)c(O)c1)O[C@@H]1C[C@](O)(C(=O)O)C[C@@H](O)[C@H]1O
REMARK SMILES IDX 2 1 1 2 13 3 14 4 21 5 22 6 16 7 24 8 15 9 23 10 17 12 18 14
REMARK SMILES IDX 19 15 20 16 25 18 3 20 4 21 5 22 12 23 6 24 10 25 7 26 8 27
REMARK SMILES IDX 11 28 9 30
REMARK H PARENT 23 11 17 13 20 17 25 19 11 29 9 31
ROOT
ATOM      1  C   UNL     1      -7.955  -3.378 -29.737  1.00  0.00     0.331 C 
ATOM      2  O   UNL     1      -7.878  -4.331 -30.500  1.00  0.00    -0.247 OA
ENDROOT
BRANCH   1   3
ATOM      3  O   UNL     1      -9.102  -2.803 -29.305  1.00  0.00    -0.456 OA
BRANCH   3   4
ATOM      4  C   UNL     1      -9.492  -3.125 -27.953  1.00  0.00     0.211 C 
ATOM      5  C   UNL     1     -11.652  -3.205 -25.910  1.00  0.00     0.082 C 
ATOM      6  C   UNL     1     -10.581  -2.116 -25.881  1.00  0.00     0.150 C 
ATOM      7  C   UNL     1     -11.149  -4.482 -26.596  1.00  0.00     0.167 C 
ATOM      8  C   UNL     1      -9.990  -1.836 -27.273  1.00  0.00     0.184 C 
ATOM      9  C   UNL     1     -10.600  -4.183 -27.990  1.00  0.00     0.095 C 
BRANCH   6  10
ATOM     10  O   UNL     1      -9.510  -2.474 -24.992  1.00  0.00    -0.390 OA
ATOM     11  H   UNL     1      -8.661  -2.321 -25.455  1.00  0.00     0.211 HD
ENDBRANCH   6  10
BRANCH   7  12
ATOM     12  O   UNL     1     -10.103  -5.049 -25.777  1.00  0.00    -0.378 OA
ATOM     13  H   UNL     1      -9.900  -5.940 -26.135  1.00  0.00     0.212 HD
ENDBRANCH   7  12
BRANCH   7  14
ATOM     14  C   UNL     1     -12.307  -5.490 -26.669  1.00  0.00     0.335 C 
ATOM     15  O   UNL     1     -13.265  -5.516 -25.914  1.00  0.00    -0.249 OA
BRANCH  14  16
ATOM     16  O   UNL     1     -12.131  -6.381 -27.677  1.00  0.00    -0.479 OA
ATOM     17  H   UNL     1     -12.165  -5.913 -28.542  1.00  0.00     0.296 HD
ENDBRANCH  14  16
ENDBRANCH   7  14
BRANCH   8  18
ATOM     18  O   UNL     1      -8.900  -0.915 -27.132  1.00  0.00    -0.387 OA
ATOM     19  H   UNL     1      -9.035  -0.233 -27.823  1.00  0.00     0.211 HD
ENDBRANCH   8  18
ENDBRANCH   3   4
ENDBRANCH   1   3
BRANCH   1  20
ATOM     20  C   UNL     1      -6.758  -2.691 -29.213  1.00  0.00     0.094 C 
ATOM     21  C   UNL     1      -5.966  -1.892 -29.945  1.00  0.00     0.016 C 
BRANCH  21  22
ATOM     22  C   UNL     1      -4.786  -1.208 -29.401  1.00  0.00    -0.021 A 
ATOM     23  C   UNL     1      -3.723  -0.797 -30.222  1.00  0.00     0.058 A 
ATOM     24  C   UNL     1      -4.752  -0.910 -28.030  1.00  0.00     0.012 A 
ATOM     25  C   UNL     1      -2.643  -0.123 -29.659  1.00  0.00     0.157 A 
ATOM     26  C   UNL     1      -3.662  -0.235 -27.473  1.00  0.00     0.051 A 
ATOM     27  C   UNL     1      -2.615   0.151 -28.295  1.00  0.00     0.157 A 
BRANCH  25  28
ATOM     28  O   UNL     1      -1.582   0.299 -30.412  1.00  0.00    -0.504 OA
ATOM     29  H   UNL     1      -1.187   1.073 -29.977  1.00  0.00     0.293 HD
ENDBRANCH  25  28
BRANCH  27  30
ATOM     30  O   UNL     1      -1.552   0.813 -27.753  1.00  0.00    -0.504 OA
ATOM     31  H   UNL     1      -1.784   0.917 -26.808  1.00  0.00     0.293 HD
ENDBRANCH  27  30
ENDBRANCH  21  22
ENDBRANCH   1  20
TORSDOF 11
ENDMDL
MODEL 7
REMARK VINA RESULT:      -7.7      3.697      4.790
REMARK SMILES O=C(/C=C/c1ccc(O)c(O)c1)O[C@@H]1C[C@](O)(C(=O)O)C[C@@H](O)[C@H]1O
REMARK SMILES IDX 2 1 1 2 13 3 14 4 21 5 22 6 16 7 24 8 15 9 23 10 17 12 18 14
REMARK SMILES IDX 19 15 20 16 25 18 3 20 4 21 5 22 12 23 6 24 10 25 7 26 8 27
REMARK SMILES IDX 11 28 9 30
REMARK H PARENT 23 11 17 13 20 17 25 19 11 29 9 31
ROOT
ATOM      1  C   UNL     1      -7.014  -0.317 -31.502  1.00  0.00     0.331 C 
ATOM      2  O   UNL     1      -7.847   0.406 -32.032  1.00  0.00    -0.247 OA
ENDROOT
BRANCH   1   3
ATOM      3  O   UNL     1      -5.672  -0.155 -31.565  1.00  0.00    -0.456 OA
BRANCH   3   4
ATOM      4  C   UNL     1      -5.006   0.048 -30.300  1.00  0.00     0.211 C 
ATOM      5  C   UNL     1      -2.708   1.232 -28.828  1.00  0.00     0.082 C 
ATOM      6  C   UNL     1      -2.759  -0.264 -29.138  1.00  0.00     0.150 C 
ATOM      7  C   UNL     1      -4.111   1.847 -28.753  1.00  0.00     0.167 C 
ATOM      8  C   UNL     1      -3.602  -0.577 -30.386  1.00  0.00     0.184 C 
ATOM      9  C   UNL     1      -4.916   1.552 -30.018  1.00  0.00     0.095 C 
BRANCH   6  10
ATOM     10  O   UNL     1      -3.297  -0.999 -28.027  1.00  0.00    -0.390 OA
ATOM     11  H   UNL     1      -3.444  -1.925 -28.311  1.00  0.00     0.211 HD
ENDBRANCH   6  10
BRANCH   7  12
ATOM     12  O   UNL     1      -4.788   1.281 -27.608  1.00  0.00    -0.378 OA
ATOM     13  H   UNL     1      -5.747   1.459 -27.718  1.00  0.00     0.212 HD
ENDBRANCH   7  12
BRANCH   7  14
ATOM     14  C   UNL     1      -3.973   3.362 -28.534  1.00  0.00     0.335 C 
ATOM     15  O   UNL     1      -2.924   3.984 -28.566  1.00  0.00    -0.249 OA
BRANCH  14  16
ATOM     16  O   UNL     1      -5.172   3.940 -28.273  1.00  0.00    -0.479 OA
ATOM     17  H   UNL     1      -5.745   3.307 -27.783  1.00  0.00     0.296 HD
ENDBRANCH  14  16
ENDBRANCH   7  14
BRANCH   8  18
ATOM     18  O   UNL     1      -3.717  -2.001 -30.517  1.00  0.00    -0.387 OA
ATOM     19  H   UNL     1      -3.582  -2.193 -31.468  1.00  0.00     0.211 HD
ENDBRANCH   8  18
ENDBRANCH   3   4
ENDBRANCH   1   3
BRANCH   1  20
ATOM     20  C   UNL     1      -7.392  -1.523 -30.738  1.00  0.00     0.094 C 
ATOM     21  C   UNL     1      -8.657  -1.861 -30.440  1.00  0.00     0.016 C 
BRANCH  21  22
ATOM     22  C   UNL     1      -9.013  -3.071 -29.689  1.00  0.00    -0.021 A 
ATOM     23  C   UNL     1      -9.438  -3.016 -28.351  1.00  0.00     0.058 A 
ATOM     24  C   UNL     1      -8.979  -4.309 -30.350  1.00  0.00     0.012 A 
ATOM     25  C   UNL     1      -9.796  -4.192 -27.697  1.00  0.00     0.157 A 
ATOM     26  C   UNL     1      -9.337  -5.485 -29.684  1.00  0.00     0.051 A 
ATOM     27  C   UNL     1      -9.741  -5.414 -28.360  1.00  0.00     0.157 A 
BRANCH  25  28
ATOM     28  O   UNL     1     -10.216  -4.195 -26.395  1.00  0.00    -0.504 OA
ATOM     29  H   UNL     1     -11.147  -3.916 -26.373  1.00  0.00     0.293 HD
ENDBRANCH  25  28
BRANCH  27  30
ATOM     30  O   UNL     1     -10.095  -6.560 -27.709  1.00  0.00    -0.504 OA
ATOM     31  H   UNL     1     -10.169  -6.296 -26.770  1.00  0.00     0.293 HD
ENDBRANCH  27  30
ENDBRANCH  21  22
ENDBRANCH   1  20
TORSDOF 11
ENDMDL
MODEL 8
REMARK VINA RESULT:      -7.7      4.036      5.341
REMARK SMILES O=C(/C=C/c1ccc(O)c(O)c1)O[C@@H]1C[C@](O)(C(=O)O)C[C@@H](O)[C@H]1O
REMARK SMILES IDX 2 1 1 2 13 3 14 4 21 5 22 6 16 7 24 8 15 9 23 10 17 12 18 14
REMARK SMILES IDX 19 15 20 16 25 18 3 20 4 21 5 22 12 23 6 24 10 25 7 26 8 27
REMARK SMILES IDX 11 28 9 30
REMARK H PARENT 23 11 17 13 20 17 25 19 11 29 9 31
ROOT
ATOM      1  C   UNL     1      -6.986  -1.330 -30.754  1.00  0.00     0.331 C 
ATOM      2  O   UNL     1      -7.234  -0.658 -31.745  1.00  0.00    -0.247 OA
ENDROOT
BRANCH   1   3
ATOM      3  O   UNL     1      -5.766  -1.480 -30.186  1.00  0.00    -0.456 OA
BRANCH   3   4
ATOM      4  C   UNL     1      -5.505  -0.648 -29.036  1.00  0.00     0.211 C 
ATOM      5  C   UNL     1      -3.489   0.684 -27.300  1.00  0.00     0.082 C 
ATOM      6  C   UNL     1      -4.195  -0.594 -26.849  1.00  0.00     0.150 C 
ATOM      7  C   UNL     1      -4.335   1.479 -28.304  1.00  0.00     0.167 C 
ATOM      8  C   UNL     1      -4.660  -1.458 -28.034  1.00  0.00     0.184 C 
ATOM      9  C   UNL     1      -4.755   0.610 -29.488  1.00  0.00     0.095 C 
BRANCH   6  10
ATOM     10  O   UNL     1      -5.336  -0.288 -26.031  1.00  0.00    -0.390 OA
ATOM     11  H   UNL     1      -5.041   0.284 -25.292  1.00  0.00     0.211 HD
ENDBRANCH   6  10
BRANCH   7  12
ATOM     12  O   UNL     1      -5.512   1.959 -27.617  1.00  0.00    -0.378 OA
ATOM     13  H   UNL     1      -6.287   1.511 -28.016  1.00  0.00     0.212 HD
ENDBRANCH   7  12
BRANCH   7  14
ATOM     14  C   UNL     1      -3.521   2.694 -28.778  1.00  0.00     0.335 C 
ATOM     15  O   UNL     1      -2.790   3.369 -28.073  1.00  0.00    -0.249 OA
BRANCH  14  16
ATOM     16  O   UNL     1      -3.728   2.950 -30.095  1.00  0.00    -0.479 OA
ATOM     17  H   UNL     1      -2.886   3.245 -30.510  1.00  0.00     0.296 HD
ENDBRANCH  14  16
ENDBRANCH   7  14
BRANCH   8  18
ATOM     18  O   UNL     1      -5.435  -2.553 -27.528  1.00  0.00    -0.387 OA
ATOM     19  H   UNL     1      -6.103  -2.749 -28.217  1.00  0.00     0.211 HD
ENDBRANCH   8  18
ENDBRANCH   3   4
ENDBRANCH   1   3
BRANCH   1  20
ATOM     20  C   UNL     1      -8.023  -2.120 -30.060  1.00  0.00     0.094 C 
ATOM     21  C   UNL     1      -8.097  -3.460 -30.094  1.00  0.00     0.016 C 
BRANCH  21  22
ATOM     22  C   UNL     1      -9.130  -4.228 -29.387  1.00  0.00    -0.021 A 
ATOM     23  C   UNL     1      -9.401  -4.026 -28.024  1.00  0.00     0.058 A 
ATOM     24  C   UNL     1      -9.903  -5.147 -30.113  1.00  0.00     0.012 A 
ATOM     25  C   UNL     1     -10.415  -4.758 -27.411  1.00  0.00     0.157 A 
ATOM     26  C   UNL     1     -10.917  -5.880 -29.489  1.00  0.00     0.051 A 
ATOM     27  C   UNL     1     -11.161  -5.678 -28.139  1.00  0.00     0.157 A 
BRANCH  25  28
ATOM     28  O   UNL     1     -10.719  -4.601 -26.086  1.00  0.00    -0.504 OA
ATOM     29  H   UNL     1     -11.622  -4.247 -26.020  1.00  0.00     0.293 HD
ENDBRANCH  25  28
BRANCH  27  30
ATOM     30  O   UNL     1     -12.153  -6.390 -27.529  1.00  0.00    -0.504 OA
ATOM     31  H   UNL     1     -12.884  -5.749 -27.421  1.00  0.00     0.293 HD
ENDBRANCH  27  30
ENDBRANCH  21  22
ENDBRANCH   1  20
TORSDOF 11
ENDMDL
MODEL 9
REMARK VINA RESULT:      -7.7      4.414      7.860
REMARK SMILES O=C(/C=C/c1ccc(O)c(O)c1)O[C@@H]1C[C@](O)(C(=O)O)C[C@@H](O)[C@H]1O
REMARK SMILES IDX 2 1 1 2 13 3 14 4 21 5 22 6 16 7 24 8 15 9 23 10 17 12 18 14
REMARK SMILES IDX 19 15 20 16 25 18 3 20 4 21 5 22 12 23 6 24 10 25 7 26 8 27
REMARK SMILES IDX 11 28 9 30
REMARK H PARENT 23 11 17 13 20 17 25 19 11 29 9 31
ROOT
ATOM      1  C   UNL     1      -8.178  -1.323 -26.113  1.00  0.00     0.331 C 
ATOM      2  O   UNL     1      -8.080  -1.395 -24.896  1.00  0.00    -0.247 OA
ENDROOT
BRANCH   1   3
ATOM      3  O   UNL     1      -9.273  -1.648 -26.839  1.00  0.00    -0.456 OA
BRANCH   3   4
ATOM      4  C   UNL     1      -9.552  -3.060 -26.953  1.00  0.00     0.211 C 
ATOM      5  C   UNL     1     -11.478  -5.190 -27.728  1.00  0.00     0.082 C 
ATOM      6  C   UNL     1     -11.242  -4.838 -26.260  1.00  0.00     0.150 C 
ATOM      7  C   UNL     1     -10.261  -4.854 -28.599  1.00  0.00     0.167 C 
ATOM      8  C   UNL     1     -10.772  -3.386 -26.072  1.00  0.00     0.184 C 
ATOM      9  C   UNL     1      -9.835  -3.397 -28.421  1.00  0.00     0.095 C 
BRANCH   6  10
ATOM     10  O   UNL     1     -10.265  -5.714 -25.675  1.00  0.00    -0.390 OA
ATOM     11  H   UNL     1     -10.736  -6.430 -25.200  1.00  0.00     0.211 HD
ENDBRANCH   6  10
BRANCH   7  12
ATOM     12  O   UNL     1      -9.176  -5.725 -28.207  1.00  0.00    -0.378 OA
ATOM     13  H   UNL     1      -8.678  -5.269 -27.495  1.00  0.00     0.212 HD
ENDBRANCH   7  12
BRANCH   7  14
ATOM     14  C   UNL     1     -10.610  -5.146 -30.067  1.00  0.00     0.335 C 
ATOM     15  O   UNL     1     -11.224  -6.123 -30.461  1.00  0.00    -0.249 OA
BRANCH  14  16
ATOM     16  O   UNL     1     -10.129  -4.186 -30.896  1.00  0.00    -0.479 OA
ATOM     17  H   UNL     1      -9.325  -3.779 -30.499  1.00  0.00     0.296 HD
ENDBRANCH  14  16
ENDBRANCH   7  14
BRANCH   8  18
ATOM     18  O   UNL     1     -10.435  -3.187 -24.692  1.00  0.00    -0.387 OA
ATOM     19  H   UNL     1     -11.289  -3.103 -24.218  1.00  0.00     0.211 HD
ENDBRANCH   8  18
ENDBRANCH   3   4
ENDBRANCH   1   3
BRANCH   1  20
ATOM     20  C   UNL     1      -7.052  -0.896 -26.969  1.00  0.00     0.094 C 
ATOM     21  C   UNL     1      -5.782  -1.294 -26.796  1.00  0.00     0.016 C 
BRANCH  21  22
ATOM     22  C   UNL     1      -4.678  -0.867 -27.666  1.00  0.00    -0.021 A 
ATOM     23  C   UNL     1      -3.645  -0.037 -27.200  1.00  0.00     0.058 A 
ATOM     24  C   UNL     1      -4.631  -1.352 -28.982  1.00  0.00     0.012 A 
ATOM     25  C   UNL     1      -2.605   0.310 -28.058  1.00  0.00     0.157 A 
ATOM     26  C   UNL     1      -3.584  -0.996 -29.837  1.00  0.00     0.051 A 
ATOM     27  C   UNL     1      -2.580  -0.164 -29.365  1.00  0.00     0.157 A 
BRANCH  25  28
ATOM     28  O   UNL     1      -1.575   1.116 -27.656  1.00  0.00    -0.504 OA
ATOM     29  H   UNL     1      -1.855   2.042 -27.752  1.00  0.00     0.293 HD
ENDBRANCH  25  28
BRANCH  27  30
ATOM     30  O   UNL     1      -1.555   0.181 -30.198  1.00  0.00    -0.504 OA
ATOM     31  H   UNL     1      -1.713   1.124 -30.403  1.00  0.00     0.293 HD
ENDBRANCH  27  30
ENDBRANCH  21  22
ENDBRANCH   1  20
TORSDOF 11
ENDMDL
MODEL 10
REMARK VINA RESULT:      -7.6      2.743      7.114
REMARK SMILES O=C(/C=C/c1ccc(O)c(O)c1)O[C@@H]1C[C@](O)(C(=O)O)C[C@@H](O)[C@H]1O
REMARK SMILES IDX 2 1 1 2 13 3 14 4 21 5 22 6 16 7 24 8 15 9 23 10 17 12 18 14
REMARK SMILES IDX 19 15 20 16 25 18 3 20 4 21 5 22 12 23 6 24 10 25 7 26 8 27
REMARK SMILES IDX 11 28 9 30
REMARK H PARENT 23 11 17 13 20 17 25 19 11 29 9 31
ROOT
ATOM      1  C   UNL     1      -8.174  -1.198 -26.360  1.00  0.00     0.331 C 
ATOM      2  O   UNL     1      -8.105  -1.362 -25.150  1.00  0.00    -0.247 OA
ENDROOT
BRANCH   1   3
ATOM      3  O   UNL     1      -9.269  -1.416 -27.127  1.00  0.00    -0.456 OA
BRANCH   3   4
ATOM      4  C   UNL     1      -9.016  -1.639 -28.530  1.00  0.00     0.211 C 
ATOM      5  C   UNL     1     -10.112  -2.348 -31.203  1.00  0.00     0.082 C 
ATOM      6  C   UNL     1      -9.326  -3.367 -30.379  1.00  0.00     0.150 C 
ATOM      7  C   UNL     1      -9.720  -0.906 -30.853  1.00  0.00     0.167 C 
ATOM      8  C   UNL     1      -9.408  -3.089 -28.868  1.00  0.00     0.184 C 
ATOM      9  C   UNL     1      -9.844  -0.646 -29.353  1.00  0.00     0.095 C 
BRANCH   6  10
ATOM     10  O   UNL     1      -7.942  -3.381 -30.767  1.00  0.00    -0.390 OA
ATOM     11  H   UNL     1      -7.452  -3.954 -30.142  1.00  0.00     0.211 HD
ENDBRANCH   6  10
BRANCH   7  12
ATOM     12  O   UNL     1      -8.351  -0.701 -31.267  1.00  0.00    -0.378 OA
ATOM     13  H   UNL     1      -8.289   0.207 -31.633  1.00  0.00     0.212 HD
ENDBRANCH   7  12
BRANCH   7  14
ATOM     14  C   UNL     1     -10.617   0.054 -31.650  1.00  0.00     0.335 C 
ATOM     15  O   UNL     1     -10.532   1.271 -31.634  1.00  0.00    -0.249 OA
BRANCH  14  16
ATOM     16  O   UNL     1     -11.548  -0.617 -32.375  1.00  0.00    -0.479 OA
ATOM     17  H   UNL     1     -11.116  -1.054 -33.144  1.00  0.00     0.296 HD
ENDBRANCH  14  16
ENDBRANCH   7  14
BRANCH   8  18
ATOM     18  O   UNL     1      -8.530  -3.996 -28.187  1.00  0.00    -0.387 OA
ATOM     19  H   UNL     1      -9.102  -4.709 -27.835  1.00  0.00     0.211 HD
ENDBRANCH   8  18
ENDBRANCH   3   4
ENDBRANCH   1   3
BRANCH   1  20
ATOM     20  C   UNL     1      -7.012  -0.767 -27.163  1.00  0.00     0.094 C 
ATOM     21  C   UNL     1      -5.815  -1.375 -27.142  1.00  0.00     0.016 C 
BRANCH  21  22
ATOM     22  C   UNL     1      -4.674  -0.937 -27.958  1.00  0.00    -0.021 A 
ATOM     23  C   UNL     1      -3.640  -0.150 -27.425  1.00  0.00     0.058 A 
ATOM     24  C   UNL     1      -4.594  -1.369 -29.291  1.00  0.00     0.012 A 
ATOM     25  C   UNL     1      -2.566   0.208 -28.234  1.00  0.00     0.157 A 
ATOM     26  C   UNL     1      -3.512  -1.002 -30.097  1.00  0.00     0.051 A 
ATOM     27  C   UNL     1      -2.508  -0.213 -29.559  1.00  0.00     0.157 A 
BRANCH  25  28
ATOM     28  O   UNL     1      -1.533   0.974 -27.767  1.00  0.00    -0.504 OA
ATOM     29  H   UNL     1      -0.887   0.387 -27.337  1.00  0.00     0.293 HD
ENDBRANCH  25  28
BRANCH  27  30
ATOM     30  O   UNL     1      -1.449   0.143 -30.344  1.00  0.00    -0.504 OA
ATOM     31  H   UNL     1      -0.675  -0.272 -29.914  1.00  0.00     0.293 HD
ENDBRANCH  27  30
ENDBRANCH  21  22
ENDBRANCH   1  20
TORSDOF 11
ENDMDL
