MODEL 1
REMARK VINA RESULT:      -8.3      0.000      0.000
REMARK SMILES O=C(/C=C/c1ccc(O)c(O)c1)O[C@@H]1C[C@](O)(C(=O)O)C[C@@H](O)[C@H]1O
REMARK SMILES IDX 2 1 1 2 13 3 14 4 21 5 22 6 16 7 24 8 15 9 23 10 17 12 18 14
REMARK SMILES IDX 19 15 20 16 25 18 3 20 4 21 5 22 12 23 6 24 10 25 7 26 8 27
REMARK SMILES IDX 11 28 9 30
REMARK H PARENT 23 11 17 13 20 17 25 19 11 29 9 31
ROOT
ATOM      1  C   UNL     1      -4.966   2.934 -30.357  1.00  0.00     0.331 C 
ATOM      2  O   UNL     1      -4.754   4.104 -30.644  1.00  0.00    -0.247 OA
ENDROOT
BRANCH   1   3
ATOM      3  O   UNL     1      -4.081   2.087 -29.781  1.00  0.00    -0.456 OA
BRANCH   3   4
ATOM      4  C   UNL     1      -4.593   0.781 -29.442  1.00  0.00     0.211 C 
ATOM      5  C   UNL     1      -4.141  -1.822 -28.077  1.00  0.00     0.082 C 
ATOM      6  C   UNL     1      -4.032  -1.701 -29.597  1.00  0.00     0.150 C 
ATOM      7  C   UNL     1      -5.072  -0.757 -27.484  1.00  0.00     0.167 C 
ATOM      8  C   UNL     1      -3.654  -0.279 -30.046  1.00  0.00     0.184 C 
ATOM      9  C   UNL     1      -4.655   0.648 -27.917  1.00  0.00     0.095 C 
BRANCH   6  10
ATOM     10  O   UNL     1      -5.269  -2.067 -30.229  1.00  0.00    -0.390 OA
ATOM     11  H   UNL     1      -6.006  -1.681 -29.713  1.00  0.00     0.211 HD
ENDBRANCH   6  10
BRANCH   7  12
ATOM     12  O   UNL     1      -6.414  -1.026 -27.948  1.00  0.00    -0.378 OA
ATOM     13  H   UNL     1      -6.516  -2.001 -28.000  1.00  0.00     0.212 HD
ENDBRANCH   7  12
BRANCH   7  14
ATOM     14  C   UNL     1      -5.054  -0.886 -25.953  1.00  0.00     0.335 C 
ATOM     15  O   UNL     1      -5.497  -1.831 -25.322  1.00  0.00    -0.249 OA
BRANCH  14  16
ATOM     16  O   UNL     1      -4.497   0.204 -25.366  1.00  0.00    -0.479 OA
ATOM     17  H   UNL     1      -4.377   0.036 -24.404  1.00  0.00     0.296 HD
ENDBRANCH  14  16
ENDBRANCH   7  14
BRANCH   8  18
ATOM     18  O   UNL     1      -3.718  -0.218 -31.478  1.00  0.00    -0.387 OA
ATOM     19  H   UNL     1      -3.458   0.695 -31.718  1.00  0.00     0.211 HD
ENDBRANCH   8  18
ENDBRANCH   3   4
ENDBRANCH   1   3
BRANCH   1  20
ATOM     20  C   UNL     1      -6.251   2.272 -30.658  1.00  0.00     0.094 C 
ATOM     21  C   UNL     1      -6.699   2.025 -31.899  1.00  0.00     0.016 C 
BRANCH  21  22
ATOM     22  C   UNL     1      -7.976   1.354 -32.177  1.00  0.00    -0.021 A 
ATOM     23  C   UNL     1      -8.921   1.109 -31.166  1.00  0.00     0.058 A 
ATOM     24  C   UNL     1      -8.278   1.001 -33.501  1.00  0.00     0.012 A 
ATOM     25  C   UNL     1     -10.129   0.500 -31.491  1.00  0.00     0.157 A 
ATOM     26  C   UNL     1      -9.494   0.387 -33.817  1.00  0.00     0.051 A 
ATOM     27  C   UNL     1     -10.408   0.140 -32.805  1.00  0.00     0.157 A 
BRANCH  25  28
ATOM     28  O   UNL     1     -11.083   0.238 -30.546  1.00  0.00    -0.504 OA
ATOM     29  H   UNL     1     -11.817  -0.235 -30.974  1.00  0.00     0.293 HD
ENDBRANCH  25  28
BRANCH  27  30
ATOM     30  O   UNL     1     -11.597  -0.456 -33.113  1.00  0.00    -0.504 OA
ATOM     31  H   UNL     1     -12.065   0.201 -33.666  1.00  0.00     0.293 HD
ENDBRANCH  27  30
ENDBRANCH  21  22
ENDBRANCH   1  20
TORSDOF 11
ENDMDL
MODEL 2
REMARK VINA RESULT:      -8.0      1.723      4.201
REMARK SMILES O=C(/C=C/c1ccc(O)c(O)c1)O[C@@H]1C[C@](O)(C(=O)O)C[C@@H](O)[C@H]1O
REMARK SMILES IDX 2 1 1 2 13 3 14 4 21 5 22 6 16 7 24 8 15 9 23 10 17 12 18 14
REMARK SMILES IDX 19 15 20 16 25 18 3 20 4 21 5 22 12 23 6 24 10 25 7 26 8 27
REMARK SMILES IDX 11 28 9 30
REMARK H PARENT 23 11 17 13 20 17 25 19 11 29 9 31
ROOT
ATOM      1  C   UNL     1      -6.984  -1.171 -27.078  1.00  0.00     0.331 C 
ATOM      2  O   UNL     1      -7.459  -1.375 -25.970  1.00  0.00    -0.247 OA
ENDROOT
BRANCH   1   3
ATOM      3  O   UNL     1      -5.736  -1.511 -27.479  1.00  0.00    -0.456 OA
BRANCH   3   4
ATOM      4  C   UNL     1      -4.920  -0.427 -27.970  1.00  0.00     0.211 C 
ATOM      5  C   UNL     1      -2.213   0.535 -28.741  1.00  0.00     0.082 C 
ATOM      6  C   UNL     1      -2.842   0.939 -27.409  1.00  0.00     0.150 C 
ATOM      7  C   UNL     1      -3.275   0.199 -29.796  1.00  0.00     0.167 C 
ATOM      8  C   UNL     1      -3.861  -0.096 -26.902  1.00  0.00     0.184 C 
ATOM      9  C   UNL     1      -4.254  -0.856 -29.282  1.00  0.00     0.095 C 
BRANCH   6  10
ATOM     10  O   UNL     1      -3.499   2.212 -27.518  1.00  0.00    -0.390 OA
ATOM     11  H   UNL     1      -3.896   2.280 -28.412  1.00  0.00     0.211 HD
ENDBRANCH   6  10
BRANCH   7  12
ATOM     12  O   UNL     1      -3.995   1.412 -30.109  1.00  0.00    -0.378 OA
ATOM     13  H   UNL     1      -4.582   1.216 -30.871  1.00  0.00     0.212 HD
ENDBRANCH   7  12
BRANCH   7  14
ATOM     14  C   UNL     1      -2.566  -0.287 -31.070  1.00  0.00     0.335 C 
ATOM     15  O   UNL     1      -3.048  -1.044 -31.897  1.00  0.00    -0.249 OA
BRANCH  14  16
ATOM     16  O   UNL     1      -1.309   0.214 -31.164  1.00  0.00    -0.479 OA
ATOM     17  H   UNL     1      -1.328   1.063 -31.663  1.00  0.00     0.296 HD
ENDBRANCH  14  16
ENDBRANCH   7  14
BRANCH   8  18
ATOM     18  O   UNL     1      -4.505   0.429 -25.733  1.00  0.00    -0.387 OA
ATOM     19  H   UNL     1      -3.899   1.112 -25.378  1.00  0.00     0.211 HD
ENDBRANCH   8  18
ENDBRANCH   3   4
ENDBRANCH   1   3
BRANCH   1  20
ATOM     20  C   UNL     1      -7.733  -0.464 -28.137  1.00  0.00     0.094 C 
ATOM     21  C   UNL     1      -8.039  -1.000 -29.329  1.00  0.00     0.016 C 
BRANCH  21  22
ATOM     22  C   UNL     1      -8.796  -0.284 -30.364  1.00  0.00    -0.021 A 
ATOM     23  C   UNL     1      -9.917  -0.853 -30.991  1.00  0.00     0.058 A 
ATOM     24  C   UNL     1      -8.418   1.028 -30.689  1.00  0.00     0.012 A 
ATOM     25  C   UNL     1     -10.618  -0.116 -31.941  1.00  0.00     0.157 A 
ATOM     26  C   UNL     1      -9.127   1.759 -31.647  1.00  0.00     0.051 A 
ATOM     27  C   UNL     1     -10.221   1.177 -32.266  1.00  0.00     0.157 A 
BRANCH  25  28
ATOM     28  O   UNL     1     -11.715  -0.623 -32.583  1.00  0.00    -0.504 OA
ATOM     29  H   UNL     1     -12.188   0.112 -33.007  1.00  0.00     0.293 HD
ENDBRANCH  25  28
BRANCH  27  30
ATOM     30  O   UNL     1     -10.917   1.891 -33.199  1.00  0.00    -0.504 OA
ATOM     31  H   UNL     1     -11.809   1.994 -32.813  1.00  0.00     0.293 HD
ENDBRANCH  27  30
ENDBRANCH  21  22
ENDBRANCH   1  20
TORSDOF 11
ENDMDL
MODEL 3
REMARK VINA RESULT:      -7.9      3.861      5.214
REMARK SMILES O=C(/C=C/c1ccc(O)c(O)c1)O[C@@H]1C[C@](O)(C(=O)O)C[C@@H](O)[C@H]1O
REMARK SMILES IDX 2 1 1 2 13 3 14 4 21 5 22 6 16 7 24 8 15 9 23 10 17 12 18 14
REMARK SMILES IDX 19 15 20 16 25 18 3 20 4 21 5 22 12 23 6 24 10 25 7 26 8 27
REMARK SMILES IDX 11 28 9 30
REMARK H PARENT 23 11 17 13 20 17 25 19 11 29 9 31
ROOT
ATOM      1  C   UNL     1      -6.838  -1.025 -31.016  1.00  0.00     0.331 C 
ATOM      2  O   UNL     1      -6.988  -0.214 -31.920  1.00  0.00    -0.247 OA
ENDROOT
BRANCH   1   3
ATOM      3  O   UNL     1      -5.672  -1.300 -30.386  1.00  0.00    -0.456 OA
BRANCH   3   4
ATOM      4  C   UNL     1      -5.390  -0.505 -29.215  1.00  0.00     0.211 C 
ATOM      5  C   UNL     1      -3.352   0.848 -27.524  1.00  0.00     0.082 C 
ATOM      6  C   UNL     1      -3.976  -0.479 -27.095  1.00  0.00     0.150 C 
ATOM      7  C   UNL     1      -4.281   1.643 -28.449  1.00  0.00     0.167 C 
ATOM      8  C   UNL     1      -4.461  -1.314 -28.292  1.00  0.00     0.184 C 
ATOM      9  C   UNL     1      -4.722   0.805 -29.648  1.00  0.00     0.095 C 
BRANCH   6  10
ATOM     10  O   UNL     1      -5.086  -0.261 -26.209  1.00  0.00    -0.390 OA
ATOM     11  H   UNL     1      -5.873  -0.706 -26.585  1.00  0.00     0.211 HD
ENDBRANCH   6  10
BRANCH   7  12
ATOM     12  O   UNL     1      -5.443   2.039 -27.686  1.00  0.00    -0.378 OA
ATOM     13  H   UNL     1      -5.562   3.005 -27.814  1.00  0.00     0.212 HD
ENDBRANCH   7  12
BRANCH   7  14
ATOM     14  C   UNL     1      -3.548   2.913 -28.910  1.00  0.00     0.335 C 
ATOM     15  O   UNL     1      -2.844   3.614 -28.202  1.00  0.00    -0.249 OA
BRANCH  14  16
ATOM     16  O   UNL     1      -3.795   3.186 -30.216  1.00  0.00    -0.479 OA
ATOM     17  H   UNL     1      -3.849   4.161 -30.345  1.00  0.00     0.296 HD
ENDBRANCH  14  16
ENDBRANCH   7  14
BRANCH   8  18
ATOM     18  O   UNL     1      -5.159  -2.465 -27.796  1.00  0.00    -0.387 OA
ATOM     19  H   UNL     1      -4.483  -3.016 -27.350  1.00  0.00     0.211 HD
ENDBRANCH   8  18
ENDBRANCH   3   4
ENDBRANCH   1   3
BRANCH   1  20
ATOM     20  C   UNL     1      -7.949  -1.860 -30.518  1.00  0.00     0.094 C 
ATOM     21  C   UNL     1      -7.795  -3.092 -30.007  1.00  0.00     0.016 C 
BRANCH  21  22
ATOM     22  C   UNL     1      -8.913  -3.902 -29.506  1.00  0.00    -0.021 A 
ATOM     23  C   UNL     1      -9.672  -4.725 -30.354  1.00  0.00     0.058 A 
ATOM     24  C   UNL     1      -9.188  -3.893 -28.130  1.00  0.00     0.012 A 
ATOM     25  C   UNL     1     -10.699  -5.498 -29.820  1.00  0.00     0.157 A 
ATOM     26  C   UNL     1     -10.223  -4.671 -27.603  1.00  0.00     0.051 A 
ATOM     27  C   UNL     1     -10.972  -5.466 -28.457  1.00  0.00     0.157 A 
BRANCH  25  28
ATOM     28  O   UNL     1     -11.470  -6.315 -30.602  1.00  0.00    -0.504 OA
ATOM     29  H   UNL     1     -10.880  -6.890 -31.118  1.00  0.00     0.293 HD
ENDBRANCH  25  28
BRANCH  27  30
ATOM     30  O   UNL     1     -11.981  -6.228 -27.943  1.00  0.00    -0.504 OA
ATOM     31  H   UNL     1     -11.718  -7.149 -28.143  1.00  0.00     0.293 HD
ENDBRANCH  27  30
ENDBRANCH  21  22
ENDBRANCH   1  20
TORSDOF 11
ENDMDL
MODEL 4
REMARK VINA RESULT:      -7.8      3.809      4.540
REMARK SMILES O=C(/C=C/c1ccc(O)c(O)c1)O[C@@H]1C[C@](O)(C(=O)O)C[C@@H](O)[C@H]1O
REMARK SMILES IDX 2 1 1 2 13 3 14 4 21 5 22 6 16 7 24 8 15 9 23 10 17 12 18 14
REMARK SMILES IDX 19 15 20 16 25 18 3 20 4 21 5 22 12 23 6 24 10 25 7 26 8 27
REMARK SMILES IDX 11 28 9 30
REMARK H PARENT 23 11 17 13 20 17 25 19 11 29 9 31
ROOT
ATOM      1  C   UNL     1      -7.646  -0.500 -31.012  1.00  0.00     0.331 C 
ATOM      2  O   UNL     1      -7.424  -0.346 -32.205  1.00  0.00    -0.247 OA
ENDROOT
BRANCH   1   3
ATOM      3  O   UNL     1      -7.032   0.160 -30.002  1.00  0.00    -0.456 OA
BRANCH   3   4
ATOM      4  C   UNL     1      -6.019  -0.584 -29.293  1.00  0.00     0.211 C 
ATOM      5  C   UNL     1      -3.745  -0.541 -27.376  1.00  0.00     0.082 C 
ATOM      6  C   UNL     1      -3.504  -0.666 -28.880  1.00  0.00     0.150 C 
ATOM      7  C   UNL     1      -5.125  -1.076 -26.972  1.00  0.00     0.167 C 
ATOM      8  C   UNL     1      -4.639  -0.041 -29.710  1.00  0.00     0.184 C 
ATOM      9  C   UNL     1      -6.237  -0.416 -27.785  1.00  0.00     0.095 C 
BRANCH   6  10
ATOM     10  O   UNL     1      -3.362  -2.043 -29.263  1.00  0.00    -0.390 OA
ATOM     11  H   UNL     1      -2.492  -2.364 -28.945  1.00  0.00     0.211 HD
ENDBRANCH   6  10
BRANCH   7  12
ATOM     12  O   UNL     1      -5.138  -2.502 -27.205  1.00  0.00    -0.378 OA
ATOM     13  H   UNL     1      -4.668  -2.664 -28.051  1.00  0.00     0.212 HD
ENDBRANCH   7  12
BRANCH   7  14
ATOM     14  C   UNL     1      -5.327  -0.829 -25.468  1.00  0.00     0.335 C 
ATOM     15  O   UNL     1      -6.009  -1.519 -24.729  1.00  0.00    -0.249 OA
BRANCH  14  16
ATOM     16  O   UNL     1      -4.665   0.279 -25.050  1.00  0.00    -0.479 OA
ATOM     17  H   UNL     1      -3.912   0.016 -24.472  1.00  0.00     0.296 HD
ENDBRANCH  14  16
ENDBRANCH   7  14
BRANCH   8  18
ATOM     18  O   UNL     1      -4.407  -0.331 -31.095  1.00  0.00    -0.387 OA
ATOM     19  H   UNL     1      -4.709   0.460 -31.588  1.00  0.00     0.211 HD
ENDBRANCH   8  18
ENDBRANCH   3   4
ENDBRANCH   1   3
BRANCH   1  20
ATOM     20  C   UNL     1      -8.617  -1.495 -30.515  1.00  0.00     0.094 C 
ATOM     21  C   UNL     1      -8.278  -2.684 -29.993  1.00  0.00     0.016 C 
BRANCH  21  22
ATOM     22  C   UNL     1      -9.260  -3.655 -29.493  1.00  0.00    -0.021 A 
ATOM     23  C   UNL     1      -9.932  -4.540 -30.352  1.00  0.00     0.058 A 
ATOM     24  C   UNL     1      -9.486  -3.734 -28.110  1.00  0.00     0.012 A 
ATOM     25  C   UNL     1     -10.828  -5.463 -29.820  1.00  0.00     0.157 A 
ATOM     26  C   UNL     1     -10.390  -4.662 -27.585  1.00  0.00     0.051 A 
ATOM     27  C   UNL     1     -11.055  -5.518 -28.449  1.00  0.00     0.157 A 
BRANCH  25  28
ATOM     28  O   UNL     1     -11.510  -6.346 -30.612  1.00  0.00    -0.504 OA
ATOM     29  H   UNL     1     -10.963  -6.544 -31.391  1.00  0.00     0.293 HD
ENDBRANCH  25  28
BRANCH  27  30
ATOM     30  O   UNL     1     -11.935  -6.427 -27.938  1.00  0.00    -0.504 OA
ATOM     31  H   UNL     1     -12.791  -5.954 -27.914  1.00  0.00     0.293 HD
ENDBRANCH  27  30
ENDBRANCH  21  22
ENDBRANCH   1  20
TORSDOF 11
ENDMDL
MODEL 5
REMARK VINA RESULT:      -7.8      4.066      6.547
REMARK SMILES O=C(/C=C/c1ccc(O)c(O)c1)O[C@@H]1C[C@](O)(C(=O)O)C[C@@H](O)[C@H]1O
REMARK SMILES IDX 2 1 1 2 13 3 14 4 21 5 22 6 16 7 24 8 15 9 23 10 17 12 18 14
REMARK SMILES IDX 19 15 20 16 25 18 3 20 4 21 5 22 12 23 6 24 10 25 7 26 8 27
REMARK SMILES IDX 11 28 9 30
REMARK H PARENT 23 11 17 13 20 17 25 19 11 29 9 31
ROOT
ATOM      1  C   UNL     1      -6.150  -2.053 -29.644  1.00  0.00     0.331 C 
ATOM      2  O   UNL     1      -5.113  -1.816 -29.039  1.00  0.00    -0.247 OA
ENDROOT
BRANCH   1   3
ATOM      3  O   UNL     1      -6.426  -1.681 -30.916  1.00  0.00    -0.456 OA
BRANCH   3   4
ATOM      4  C   UNL     1      -7.034  -0.382 -31.070  1.00  0.00     0.211 C 
ATOM      5  C   UNL     1      -7.919   1.779 -32.913  1.00  0.00     0.082 C 
ATOM      6  C   UNL     1      -6.633   1.916 -32.099  1.00  0.00     0.150 C 
ATOM      7  C   UNL     1      -8.926   0.840 -32.236  1.00  0.00     0.167 C 
ATOM      8  C   UNL     1      -6.014   0.553 -31.746  1.00  0.00     0.184 C 
ATOM      9  C   UNL     1      -8.297  -0.518 -31.927  1.00  0.00     0.095 C 
BRANCH   6  10
ATOM     10  O   UNL     1      -6.872   2.639 -30.881  1.00  0.00    -0.390 OA
ATOM     11  H   UNL     1      -7.447   2.094 -30.305  1.00  0.00     0.211 HD
ENDBRANCH   6  10
BRANCH   7  12
ATOM     12  O   UNL     1      -9.361   1.461 -31.006  1.00  0.00    -0.378 OA
ATOM     13  H   UNL     1      -9.506   0.744 -30.352  1.00  0.00     0.212 HD
ENDBRANCH   7  12
BRANCH   7  14
ATOM     14  C   UNL     1     -10.146   0.681 -33.157  1.00  0.00     0.335 C 
ATOM     15  O   UNL     1     -10.331  -0.249 -33.924  1.00  0.00    -0.249 OA
BRANCH  14  16
ATOM     16  O   UNL     1     -11.004   1.725 -33.034  1.00  0.00    -0.479 OA
ATOM     17  H   UNL     1     -10.871   2.352 -33.781  1.00  0.00     0.296 HD
ENDBRANCH  14  16
ENDBRANCH   7  14
BRANCH   8  18
ATOM     18  O   UNL     1      -4.902   0.769 -30.865  1.00  0.00    -0.387 OA
ATOM     19  H   UNL     1      -4.853  -0.028 -30.297  1.00  0.00     0.211 HD
ENDBRANCH   8  18
ENDBRANCH   3   4
ENDBRANCH   1   3
BRANCH   1  20
ATOM     20  C   UNL     1      -7.282  -2.763 -29.015  1.00  0.00     0.094 C 
ATOM     21  C   UNL     1      -8.104  -3.598 -29.670  1.00  0.00     0.016 C 
BRANCH  21  22
ATOM     22  C   UNL     1      -9.218  -4.304 -29.023  1.00  0.00    -0.021 A 
ATOM     23  C   UNL     1      -9.706  -3.922 -27.763  1.00  0.00     0.058 A 
ATOM     24  C   UNL     1      -9.844  -5.353 -29.715  1.00  0.00     0.012 A 
ATOM     25  C   UNL     1     -10.786  -4.605 -27.211  1.00  0.00     0.157 A 
ATOM     26  C   UNL     1     -10.926  -6.035 -29.151  1.00  0.00     0.051 A 
ATOM     27  C   UNL     1     -11.386  -5.654 -27.900  1.00  0.00     0.157 A 
BRANCH  25  28
ATOM     28  O   UNL     1     -11.300  -4.275 -25.987  1.00  0.00    -0.504 OA
ATOM     29  H   UNL     1     -10.775  -4.725 -25.303  1.00  0.00     0.293 HD
ENDBRANCH  25  28
BRANCH  27  30
ATOM     30  O   UNL     1     -12.445  -6.317 -27.350  1.00  0.00    -0.504 OA
ATOM     31  H   UNL     1     -12.356  -6.165 -26.388  1.00  0.00     0.293 HD
ENDBRANCH  27  30
ENDBRANCH  21  22
ENDBRANCH   1  20
TORSDOF 11
ENDMDL
MODEL 6
REMARK VINA RESULT:      -7.8      5.405      7.123
REMARK SMILES O=C(/C=C/c1ccc(O)c(O)c1)O[C@@H]1C[C@](O)(C(=O)O)C[C@@H](O)[C@H]1O
REMARK SMILES IDX 2 1 1 2 13 3 14 4 21 5 22 6 16 7 24 8 15 9 23 10 17 12 18 14
REMARK SMILES IDX 19 15 20 16 25 18 3 20 4 21 5 22 12 23 6 24 10 25 7 26 8 27
REMARK SMILES IDX 11 28 9 30
REMARK H PARENT 23 11 17 13 20 17 25 19 11 29 9 31
ROOT
ATOM      1  C   UNL     1     -10.010  -4.996 -29.884  1.00  0.00     0.331 C 
ATOM      2  O   UNL     1     -10.673  -5.836 -30.478  1.00  0.00    -0.247 OA
ENDROOT
BRANCH   1   3
ATOM      3  O   UNL     1      -9.669  -5.039 -28.575  1.00  0.00    -0.456 OA
BRANCH   3   4
ATOM      4  C   UNL     1     -10.735  -4.764 -27.641  1.00  0.00     0.211 C 
ATOM      5  C   UNL     1     -11.621  -4.620 -24.805  1.00  0.00     0.082 C 
ATOM      6  C   UNL     1     -12.020  -5.796 -25.696  1.00  0.00     0.150 C 
ATOM      7  C   UNL     1     -11.342  -3.353 -25.624  1.00  0.00     0.167 C 
ATOM      8  C   UNL     1     -11.010  -6.044 -26.829  1.00  0.00     0.184 C 
ATOM      9  C   UNL     1     -10.310  -3.616 -26.720  1.00  0.00     0.095 C 
BRANCH   6  10
ATOM     10  O   UNL     1     -13.316  -5.581 -26.278  1.00  0.00    -0.390 OA
ATOM     11  H   UNL     1     -13.194  -5.279 -27.201  1.00  0.00     0.211 HD
ENDBRANCH   6  10
BRANCH   7  12
ATOM     12  O   UNL     1     -12.585  -2.924 -26.224  1.00  0.00    -0.378 OA
ATOM     13  H   UNL     1     -13.110  -2.481 -25.524  1.00  0.00     0.212 HD
ENDBRANCH   7  12
BRANCH   7  14
ATOM     14  C   UNL     1     -10.858  -2.249 -24.671  1.00  0.00     0.335 C 
ATOM     15  O   UNL     1      -9.840  -1.592 -24.815  1.00  0.00    -0.249 OA
BRANCH  14  16
ATOM     16  O   UNL     1     -11.698  -2.096 -23.616  1.00  0.00    -0.479 OA
ATOM     17  H   UNL     1     -12.471  -1.549 -23.885  1.00  0.00     0.296 HD
ENDBRANCH  14  16
ENDBRANCH   7  14
BRANCH   8  18
ATOM     18  O   UNL     1     -11.532  -7.060 -27.696  1.00  0.00    -0.387 OA
ATOM     19  H   UNL     1     -11.083  -7.891 -27.434  1.00  0.00     0.211 HD
ENDBRANCH   8  18
ENDBRANCH   3   4
ENDBRANCH   1   3
BRANCH   1  20
ATOM     20  C   UNL     1      -9.522  -3.769 -30.544  1.00  0.00     0.094 C 
ATOM     21  C   UNL     1     -10.281  -2.687 -30.779  1.00  0.00     0.016 C 
BRANCH  21  22
ATOM     22  C   UNL     1      -9.773  -1.471 -31.427  1.00  0.00    -0.021 A 
ATOM     23  C   UNL     1     -10.633  -0.454 -31.874  1.00  0.00     0.058 A 
ATOM     24  C   UNL     1      -8.385  -1.301 -31.548  1.00  0.00     0.012 A 
ATOM     25  C   UNL     1     -10.095   0.693 -32.450  1.00  0.00     0.157 A 
ATOM     26  C   UNL     1      -7.855  -0.146 -32.131  1.00  0.00     0.051 A 
ATOM     27  C   UNL     1      -8.718   0.841 -32.579  1.00  0.00     0.157 A 
BRANCH  25  28
ATOM     28  O   UNL     1     -10.887   1.714 -32.903  1.00  0.00    -0.504 OA
ATOM     29  H   UNL     1     -10.382   2.224 -33.559  1.00  0.00     0.293 HD
ENDBRANCH  25  28
BRANCH  27  30
ATOM     30  O   UNL     1      -8.201   1.970 -33.146  1.00  0.00    -0.504 OA
ATOM     31  H   UNL     1      -8.971   2.413 -33.555  1.00  0.00     0.293 HD
ENDBRANCH  27  30
ENDBRANCH  21  22
ENDBRANCH   1  20
TORSDOF 11
ENDMDL
MODEL 7
REMARK VINA RESULT:      -7.7      3.625      4.854
REMARK SMILES O=C(/C=C/c1ccc(O)c(O)c1)O[C@@H]1C[C@](O)(C(=O)O)C[C@@H](O)[C@H]1O
REMARK SMILES IDX 2 1 1 2 13 3 14 4 21 5 22 6 16 7 24 8 15 9 23 10 17 12 18 14
REMARK SMILES IDX 19 15 20 16 25 18 3 20 4 21 5 22 12 23 6 24 10 25 7 26 8 27
REMARK SMILES IDX 11 28 9 30
REMARK H PARENT 23 11 17 13 20 17 25 19 11 29 9 31
ROOT
ATOM      1  C   UNL     1      -6.893  -0.288 -31.526  1.00  0.00     0.331 C 
ATOM      2  O   UNL     1      -7.703   0.405 -32.127  1.00  0.00    -0.247 OA
ENDROOT
BRANCH   1   3
ATOM      3  O   UNL     1      -5.547  -0.158 -31.581  1.00  0.00    -0.456 OA
BRANCH   3   4
ATOM      4  C   UNL     1      -4.890   0.089 -30.320  1.00  0.00     0.211 C 
ATOM      5  C   UNL     1      -2.476   1.079 -28.892  1.00  0.00     0.082 C 
ATOM      6  C   UNL     1      -2.747  -0.418 -29.036  1.00  0.00     0.150 C 
ATOM      7  C   UNL     1      -3.770   1.902 -28.945  1.00  0.00     0.167 C 
ATOM      8  C   UNL     1      -3.596  -0.744 -30.276  1.00  0.00     0.184 C 
ATOM      9  C   UNL     1      -4.578   1.585 -30.202  1.00  0.00     0.095 C 
BRANCH   6  10
ATOM     10  O   UNL     1      -3.418  -0.930 -27.874  1.00  0.00    -0.390 OA
ATOM     11  H   UNL     1      -4.350  -0.629 -27.897  1.00  0.00     0.211 HD
ENDBRANCH   6  10
BRANCH   7  12
ATOM     12  O   UNL     1      -4.553   1.579 -27.774  1.00  0.00    -0.378 OA
ATOM     13  H   UNL     1      -3.967   1.097 -27.153  1.00  0.00     0.212 HD
ENDBRANCH   7  12
BRANCH   7  14
ATOM     14  C   UNL     1      -3.407   3.394 -28.889  1.00  0.00     0.335 C 
ATOM     15  O   UNL     1      -2.923   3.964 -27.925  1.00  0.00    -0.249 OA
BRANCH  14  16
ATOM     16  O   UNL     1      -3.711   4.026 -30.051  1.00  0.00    -0.479 OA
ATOM     17  H   UNL     1      -4.175   4.872 -29.855  1.00  0.00     0.296 HD
ENDBRANCH  14  16
ENDBRANCH   7  14
BRANCH   8  18
ATOM     18  O   UNL     1      -3.924  -2.140 -30.253  1.00  0.00    -0.387 OA
ATOM     19  H   UNL     1      -3.573  -2.511 -31.090  1.00  0.00     0.211 HD
ENDBRANCH   8  18
ENDBRANCH   3   4
ENDBRANCH   1   3
BRANCH   1  20
ATOM     20  C   UNL     1      -7.307  -1.417 -30.669  1.00  0.00     0.094 C 
ATOM     21  C   UNL     1      -8.517  -1.996 -30.719  1.00  0.00     0.016 C 
BRANCH  21  22
ATOM     22  C   UNL     1      -8.906  -3.127 -29.866  1.00  0.00    -0.021 A 
ATOM     23  C   UNL     1      -9.295  -2.948 -28.528  1.00  0.00     0.058 A 
ATOM     24  C   UNL     1      -8.941  -4.413 -30.427  1.00  0.00     0.012 A 
ATOM     25  C   UNL     1      -9.686  -4.051 -27.775  1.00  0.00     0.157 A 
ATOM     26  C   UNL     1      -9.332  -5.516 -29.661  1.00  0.00     0.051 A 
ATOM     27  C   UNL     1      -9.700  -5.323 -28.339  1.00  0.00     0.157 A 
BRANCH  25  28
ATOM     28  O   UNL     1     -10.073  -3.933 -26.468  1.00  0.00    -0.504 OA
ATOM     29  H   UNL     1      -9.908  -3.019 -26.181  1.00  0.00     0.293 HD
ENDBRANCH  25  28
BRANCH  27  30
ATOM     30  O   UNL     1     -10.085  -6.398 -27.591  1.00  0.00    -0.504 OA
ATOM     31  H   UNL     1      -9.382  -7.061 -27.735  1.00  0.00     0.293 HD
ENDBRANCH  27  30
ENDBRANCH  21  22
ENDBRANCH   1  20
TORSDOF 11
ENDMDL
MODEL 8
REMARK VINA RESULT:      -7.6      4.758      7.452
REMARK SMILES O=C(/C=C/c1ccc(O)c(O)c1)O[C@@H]1C[C@](O)(C(=O)O)C[C@@H](O)[C@H]1O
REMARK SMILES IDX 2 1 1 2 13 3 14 4 21 5 22 6 16 7 24 8 15 9 23 10 17 12 18 14
REMARK SMILES IDX 19 15 20 16 25 18 3 20 4 21 5 22 12 23 6 24 10 25 7 26 8 27
REMARK SMILES IDX 11 28 9 30
REMARK H PARENT 23 11 17 13 20 17 25 19 11 29 9 31
ROOT
ATOM      1  C   UNL     1      -8.537  -3.825 -29.798  1.00  0.00     0.331 C 
ATOM      2  O   UNL     1      -8.802  -4.917 -30.282  1.00  0.00    -0.247 OA
ENDROOT
BRANCH   1   3
ATOM      3  O   UNL     1      -9.411  -3.007 -29.166  1.00  0.00    -0.456 OA
BRANCH   3   4
ATOM      4  C   UNL     1      -9.658  -3.309 -27.776  1.00  0.00     0.211 C 
ATOM      5  C   UNL     1     -11.560  -3.261 -25.490  1.00  0.00     0.082 C 
ATOM      6  C   UNL     1     -10.425  -2.242 -25.592  1.00  0.00     0.150 C 
ATOM      7  C   UNL     1     -11.225  -4.564 -26.227  1.00  0.00     0.167 C 
ATOM      8  C   UNL     1      -9.988  -1.995 -27.045  1.00  0.00     0.184 C 
ATOM      9  C   UNL     1     -10.827  -4.295 -27.678  1.00  0.00     0.095 C 
BRANCH   6  10
ATOM     10  O   UNL     1      -9.281  -2.672 -24.836  1.00  0.00    -0.390 OA
ATOM     11  H   UNL     1      -9.339  -2.283 -23.939  1.00  0.00     0.211 HD
ENDBRANCH   6  10
BRANCH   7  12
ATOM     12  O   UNL     1     -10.127  -5.201 -25.536  1.00  0.00    -0.378 OA
ATOM     13  H   UNL     1      -9.296  -4.845 -25.917  1.00  0.00     0.212 HD
ENDBRANCH   7  12
BRANCH   7  14
ATOM     14  C   UNL     1     -12.446  -5.495 -26.159  1.00  0.00     0.335 C 
ATOM     15  O   UNL     1     -13.211  -5.582 -25.212  1.00  0.00    -0.249 OA
BRANCH  14  16
ATOM     16  O   UNL     1     -12.569  -6.242 -27.285  1.00  0.00    -0.479 OA
ATOM     17  H   UNL     1     -12.220  -7.148 -27.121  1.00  0.00     0.296 HD
ENDBRANCH  14  16
ENDBRANCH   7  14
BRANCH   8  18
ATOM     18  O   UNL     1      -8.831  -1.146 -27.038  1.00  0.00    -0.387 OA
ATOM     19  H   UNL     1      -9.087  -0.350 -26.526  1.00  0.00     0.211 HD
ENDBRANCH   8  18
ENDBRANCH   3   4
ENDBRANCH   1   3
BRANCH   1  20
ATOM     20  C   UNL     1      -7.188  -3.231 -29.890  1.00  0.00     0.094 C 
ATOM     21  C   UNL     1      -6.948  -1.912 -29.958  1.00  0.00     0.016 C 
BRANCH  21  22
ATOM     22  C   UNL     1      -5.598  -1.341 -30.037  1.00  0.00    -0.021 A 
ATOM     23  C   UNL     1      -5.245  -0.403 -31.021  1.00  0.00     0.058 A 
ATOM     24  C   UNL     1      -4.654  -1.705 -29.063  1.00  0.00     0.012 A 
ATOM     25  C   UNL     1      -3.960   0.131 -31.029  1.00  0.00     0.157 A 
ATOM     26  C   UNL     1      -3.365  -1.165 -29.081  1.00  0.00     0.051 A 
ATOM     27  C   UNL     1      -3.030  -0.251 -30.068  1.00  0.00     0.157 A 
BRANCH  25  28
ATOM     28  O   UNL     1      -3.564   1.047 -31.965  1.00  0.00    -0.504 OA
ATOM     29  H   UNL     1      -3.760   1.936 -31.625  1.00  0.00     0.293 HD
ENDBRANCH  25  28
BRANCH  27  30
ATOM     30  O   UNL     1      -1.772   0.280 -30.084  1.00  0.00    -0.504 OA
ATOM     31  H   UNL     1      -1.579   0.481 -29.147  1.00  0.00     0.293 HD
ENDBRANCH  27  30
ENDBRANCH  21  22
ENDBRANCH   1  20
TORSDOF 11
ENDMDL
MODEL 9
REMARK VINA RESULT:      -7.6      4.030      5.297
REMARK SMILES O=C(/C=C/c1ccc(O)c(O)c1)O[C@@H]1C[C@](O)(C(=O)O)C[C@@H](O)[C@H]1O
REMARK SMILES IDX 2 1 1 2 13 3 14 4 21 5 22 6 16 7 24 8 15 9 23 10 17 12 18 14
REMARK SMILES IDX 19 15 20 16 25 18 3 20 4 21 5 22 12 23 6 24 10 25 7 26 8 27
REMARK SMILES IDX 11 28 9 30
REMARK H PARENT 23 11 17 13 20 17 25 19 11 29 9 31
ROOT
ATOM      1  C   UNL     1      -8.467  -0.897 -31.766  1.00  0.00     0.331 C 
ATOM      2  O   UNL     1      -8.518  -0.670 -32.967  1.00  0.00    -0.247 OA
ENDROOT
BRANCH   1   3
ATOM      3  O   UNL     1      -7.788  -0.167 -30.851  1.00  0.00    -0.456 OA
BRANCH   3   4
ATOM      4  C   UNL     1      -6.379   0.007 -31.111  1.00  0.00     0.211 C 
ATOM      5  C   UNL     1      -3.765   1.090 -30.192  1.00  0.00     0.082 C 
ATOM      6  C   UNL     1      -4.572   1.798 -31.279  1.00  0.00     0.150 C 
ATOM      7  C   UNL     1      -4.075  -0.411 -30.137  1.00  0.00     0.167 C 
ATOM      8  C   UNL     1      -6.080   1.517 -31.168  1.00  0.00     0.184 C 
ATOM      9  C   UNL     1      -5.575  -0.664 -29.992  1.00  0.00     0.095 C 
BRANCH   6  10
ATOM     10  O   UNL     1      -4.127   1.402 -32.587  1.00  0.00    -0.390 OA
ATOM     11  H   UNL     1      -3.222   1.037 -32.508  1.00  0.00     0.211 HD
ENDBRANCH   6  10
BRANCH   7  12
ATOM     12  O   UNL     1      -3.602  -1.012 -31.363  1.00  0.00    -0.378 OA
ATOM     13  H   UNL     1      -4.028  -1.892 -31.442  1.00  0.00     0.212 HD
ENDBRANCH   7  12
BRANCH   7  14
ATOM     14  C   UNL     1      -3.301  -1.031 -28.963  1.00  0.00     0.335 C 
ATOM     15  O   UNL     1      -3.595  -2.071 -28.398  1.00  0.00    -0.249 OA
BRANCH  14  16
ATOM     16  O   UNL     1      -2.241  -0.263 -28.603  1.00  0.00    -0.479 OA
ATOM     17  H   UNL     1      -1.718  -0.727 -27.910  1.00  0.00     0.296 HD
ENDBRANCH  14  16
ENDBRANCH   7  14
BRANCH   8  18
ATOM     18  O   UNL     1      -6.739   2.095 -32.304  1.00  0.00    -0.387 OA
ATOM     19  H   UNL     1      -7.150   1.346 -32.784  1.00  0.00     0.211 HD
ENDBRANCH   8  18
ENDBRANCH   3   4
ENDBRANCH   1   3
BRANCH   1  20
ATOM     20  C   UNL     1      -9.136  -2.066 -31.158  1.00  0.00     0.094 C 
ATOM     21  C   UNL     1      -8.858  -2.540 -29.933  1.00  0.00     0.016 C 
BRANCH  21  22
ATOM     22  C   UNL     1      -9.542  -3.697 -29.343  1.00  0.00    -0.021 A 
ATOM     23  C   UNL     1      -9.576  -3.910 -27.955  1.00  0.00     0.058 A 
ATOM     24  C   UNL     1     -10.229  -4.579 -30.191  1.00  0.00     0.012 A 
ATOM     25  C   UNL     1     -10.268  -5.005 -27.446  1.00  0.00     0.157 A 
ATOM     26  C   UNL     1     -10.920  -5.678 -29.671  1.00  0.00     0.051 A 
ATOM     27  C   UNL     1     -10.930  -5.881 -28.300  1.00  0.00     0.157 A 
BRANCH  25  28
ATOM     28  O   UNL     1     -10.332  -5.259 -26.103  1.00  0.00    -0.504 OA
ATOM     29  H   UNL     1     -10.726  -6.139 -25.977  1.00  0.00     0.293 HD
ENDBRANCH  25  28
BRANCH  27  30
ATOM     30  O   UNL     1     -11.607  -6.951 -27.791  1.00  0.00    -0.504 OA
ATOM     31  H   UNL     1     -11.093  -7.729 -28.085  1.00  0.00     0.293 HD
ENDBRANCH  27  30
ENDBRANCH  21  22
ENDBRANCH   1  20
TORSDOF 11
ENDMDL
MODEL 10
REMARK VINA RESULT:      -7.6      4.622      6.320
REMARK SMILES O=C(/C=C/c1ccc(O)c(O)c1)O[C@@H]1C[C@](O)(C(=O)O)C[C@@H](O)[C@H]1O
REMARK SMILES IDX 2 1 1 2 13 3 14 4 21 5 22 6 16 7 24 8 15 9 23 10 17 12 18 14
REMARK SMILES IDX 19 15 20 16 25 18 3 20 4 21 5 22 12 23 6 24 10 25 7 26 8 27
REMARK SMILES IDX 11 28 9 30
REMARK H PARENT 23 11 17 13 20 17 25 19 11 29 9 31
ROOT
ATOM      1  C   UNL     1      -8.056  -2.494 -29.831  1.00  0.00     0.331 C 
ATOM      2  O   UNL     1      -8.291  -2.134 -30.976  1.00  0.00    -0.247 OA
ENDROOT
BRANCH   1   3
ATOM      3  O   UNL     1      -6.830  -2.747 -29.318  1.00  0.00    -0.456 OA
BRANCH   3   4
ATOM      4  C   UNL     1      -6.049  -1.586 -28.962  1.00  0.00     0.211 C 
ATOM      5  C   UNL     1      -3.413  -0.484 -28.133  1.00  0.00     0.082 C 
ATOM      6  C   UNL     1      -4.546  -0.662 -27.122  1.00  0.00     0.150 C 
ATOM      7  C   UNL     1      -3.946  -0.303 -29.560  1.00  0.00     0.167 C 
ATOM      8  C   UNL     1      -5.524  -1.778 -27.527  1.00  0.00     0.184 C 
ATOM      9  C   UNL     1      -4.888  -1.440 -29.951  1.00  0.00     0.095 C 
BRANCH   6  10
ATOM     10  O   UNL     1      -5.285   0.559 -26.961  1.00  0.00    -0.390 OA
ATOM     11  H   UNL     1      -6.208   0.402 -27.248  1.00  0.00     0.211 HD
ENDBRANCH   6  10
BRANCH   7  12
ATOM     12  O   UNL     1      -4.659   0.954 -29.616  1.00  0.00    -0.378 OA
ATOM     13  H   UNL     1      -5.420   0.831 -30.223  1.00  0.00     0.212 HD
ENDBRANCH   7  12
BRANCH   7  14
ATOM     14  C   UNL     1      -2.752  -0.225 -30.525  1.00  0.00     0.335 C 
ATOM     15  O   UNL     1      -1.606   0.040 -30.204  1.00  0.00    -0.249 OA
BRANCH  14  16
ATOM     16  O   UNL     1      -3.128  -0.469 -31.806  1.00  0.00    -0.479 OA
ATOM     17  H   UNL     1      -3.841  -1.148 -31.817  1.00  0.00     0.296 HD
ENDBRANCH  14  16
ENDBRANCH   7  14
BRANCH   8  18
ATOM     18  O   UNL     1      -6.626  -1.777 -26.608  1.00  0.00    -0.387 OA
ATOM     19  H   UNL     1      -6.311  -2.257 -25.813  1.00  0.00     0.211 HD
ENDBRANCH   8  18
ENDBRANCH   3   4
ENDBRANCH   1   3
BRANCH   1  20
ATOM     20  C   UNL     1      -9.131  -2.747 -28.850  1.00  0.00     0.094 C 
ATOM     21  C   UNL     1      -9.361  -3.937 -28.274  1.00  0.00     0.016 C 
BRANCH  21  22
ATOM     22  C   UNL     1     -10.428  -4.164 -27.291  1.00  0.00    -0.021 A 
ATOM     23  C   UNL     1     -10.876  -3.146 -26.433  1.00  0.00     0.058 A 
ATOM     24  C   UNL     1     -11.054  -5.420 -27.253  1.00  0.00     0.012 A 
ATOM     25  C   UNL     1     -11.914  -3.406 -25.544  1.00  0.00     0.157 A 
ATOM     26  C   UNL     1     -12.094  -5.673 -26.354  1.00  0.00     0.051 A 
ATOM     27  C   UNL     1     -12.513  -4.661 -25.505  1.00  0.00     0.157 A 
BRANCH  25  28
ATOM     28  O   UNL     1     -12.387  -2.451 -24.686  1.00  0.00    -0.504 OA
ATOM     29  H   UNL     1     -11.785  -2.398 -23.925  1.00  0.00     0.293 HD
ENDBRANCH  25  28
BRANCH  27  30
ATOM     30  O   UNL     1     -13.531  -4.906 -24.630  1.00  0.00    -0.504 OA
ATOM     31  H   UNL     1     -13.311  -5.772 -24.233  1.00  0.00     0.293 HD
ENDBRANCH  27  30
ENDBRANCH  21  22
ENDBRANCH   1  20
TORSDOF 11
ENDMDL
