MODEL 1
REMARK VINA RESULT:      -8.9      0.000      0.000
REMARK SMILES O=C(/C=C/c1ccc(O)c(O)c1)O[C@@H]1[C@H](O)C[C@@](O)(C(=O)O)C[C@H]1OC(=O)/C=C/c1ccc(O)c(O)c1
REMARK SMILES IDX 17 1 15 2 14 3 24 4 23 5 18 6 16 7 19 9 20 11 21 12 22 13
REMARK SMILES IDX 13 15 2 16 1 17 3 18 4 19 5 20 12 21 6 22 10 23 7 24 8 25
REMARK SMILES IDX 11 26 9 28 25 30 26 31 27 32 28 33 29 34 30 35 37 36 31 37
REMARK SMILES IDX 35 38 32 39 33 40 36 41 34 43
REMARK H PARENT 16 8 19 10 22 14 11 27 9 29 36 42 34 44
ROOT
ATOM      1  C   UNL     1     -10.456  -2.420 -22.888  1.00  0.00     0.083 C 
ATOM      2  C   UNL     1     -10.488  -1.377 -24.001  1.00  0.00     0.162 C 
ATOM      3  C   UNL     1      -9.181  -1.383 -24.811  1.00  0.00     0.246 C 
ATOM      4  C   UNL     1      -7.959  -1.158 -23.897  1.00  0.00     0.223 C 
ATOM      5  C   UNL     1      -7.931  -2.180 -22.756  1.00  0.00     0.097 C 
ATOM      6  C   UNL     1      -9.242  -2.214 -21.970  1.00  0.00     0.168 C 
ENDROOT
BRANCH   2   7
ATOM      7  O   UNL     1     -10.678  -0.094 -23.383  1.00  0.00    -0.389 OA
ATOM      8  H   UNL     1      -9.941   0.018 -22.748  1.00  0.00     0.211 HD
ENDBRANCH   2   7
BRANCH   6   9
ATOM      9  O   UNL     1      -9.370  -0.984 -21.226  1.00  0.00    -0.378 OA
ATOM     10  H   UNL     1      -9.860  -1.197 -20.396  1.00  0.00     0.212 HD
ENDBRANCH   6   9
BRANCH   6  11
ATOM     11  C   UNL     1      -9.192  -3.354 -20.942  1.00  0.00     0.335 C 
ATOM     12  O   UNL     1      -9.556  -3.268 -19.779  1.00  0.00    -0.249 OA
BRANCH  11  13
ATOM     13  O   UNL     1      -8.696  -4.494 -21.486  1.00  0.00    -0.479 OA
ATOM     14  H   UNL     1      -8.919  -5.229 -20.862  1.00  0.00     0.296 HD
ENDBRANCH  11  13
ENDBRANCH   6  11
BRANCH   3  15
ATOM     15  O   UNL     1      -9.230  -0.313 -25.782  1.00  0.00    -0.452 OA
BRANCH  15  16
ATOM     16  C   UNL     1      -8.796  -0.623 -27.026  1.00  0.00     0.331 C 
ATOM     17  O   UNL     1      -9.119  -1.600 -27.678  1.00  0.00    -0.247 OA
BRANCH  16  18
ATOM     18  C   UNL     1      -7.865   0.436 -27.459  1.00  0.00     0.094 C 
ATOM     19  C   UNL     1      -7.439   0.469 -28.731  1.00  0.00     0.016 C 
BRANCH  19  20
ATOM     20  C   UNL     1      -6.517   1.484 -29.264  1.00  0.00    -0.021 A 
ATOM     21  C   UNL     1      -5.838   1.211 -30.462  1.00  0.00     0.058 A 
ATOM     22  C   UNL     1      -6.255   2.687 -28.587  1.00  0.00     0.012 A 
ATOM     23  C   UNL     1      -4.940   2.143 -30.975  1.00  0.00     0.157 A 
ATOM     24  C   UNL     1      -5.351   3.618 -29.109  1.00  0.00     0.051 A 
ATOM     25  C   UNL     1      -4.703   3.337 -30.301  1.00  0.00     0.157 A 
BRANCH  23  26
ATOM     26  O   UNL     1      -4.261   1.928 -32.144  1.00  0.00    -0.504 OA
ATOM     27  H   UNL     1      -3.370   2.306 -32.053  1.00  0.00     0.293 HD
ENDBRANCH  23  26
BRANCH  25  28
ATOM     28  O   UNL     1      -3.821   4.245 -30.811  1.00  0.00    -0.504 OA
ATOM     29  H   UNL     1      -4.273   4.616 -31.594  1.00  0.00     0.293 HD
ENDBRANCH  25  28
ENDBRANCH  19  20
ENDBRANCH  16  18
ENDBRANCH  15  16
ENDBRANCH   3  15
BRANCH   4  30
ATOM     30  O   UNL     1      -6.745  -1.358 -24.660  1.00  0.00    -0.455 OA
BRANCH  30  31
ATOM     31  C   UNL     1      -5.700  -0.547 -24.368  1.00  0.00     0.331 C 
ATOM     32  O   UNL     1      -5.402  -0.117 -23.264  1.00  0.00    -0.247 OA
BRANCH  31  33
ATOM     33  C   UNL     1      -4.915  -0.209 -25.574  1.00  0.00     0.094 C 
ATOM     34  C   UNL     1      -4.625  -1.075 -26.558  1.00  0.00     0.016 C 
BRANCH  34  35
ATOM     35  C   UNL     1      -3.857  -0.704 -27.755  1.00  0.00    -0.021 A 
ATOM     36  C   UNL     1      -3.936  -1.525 -28.890  1.00  0.00     0.058 A 
ATOM     37  C   UNL     1      -3.011   0.418 -27.775  1.00  0.00     0.012 A 
ATOM     38  C   UNL     1      -3.199  -1.203 -30.026  1.00  0.00     0.157 A 
ATOM     39  C   UNL     1      -2.273   0.733 -28.919  1.00  0.00     0.051 A 
ATOM     40  C   UNL     1      -2.376  -0.080 -30.036  1.00  0.00     0.157 A 
BRANCH  38  41
ATOM     41  O   UNL     1      -3.248  -1.963 -31.162  1.00  0.00    -0.504 OA
ATOM     42  H   UNL     1      -3.552  -1.400 -31.894  1.00  0.00     0.293 HD
ENDBRANCH  38  41
BRANCH  40  43
ATOM     43  O   UNL     1      -1.655   0.228 -31.153  1.00  0.00    -0.504 OA
ATOM     44  H   UNL     1      -1.120   1.006 -30.894  1.00  0.00     0.293 HD
ENDBRANCH  40  43
ENDBRANCH  34  35
ENDBRANCH  31  33
ENDBRANCH  30  31
ENDBRANCH   4  30
TORSDOF 16
ENDMDL
MODEL 2
REMARK VINA RESULT:      -8.9      1.317      3.881
REMARK SMILES O=C(/C=C/c1ccc(O)c(O)c1)O[C@@H]1[C@H](O)C[C@@](O)(C(=O)O)C[C@H]1OC(=O)/C=C/c1ccc(O)c(O)c1
REMARK SMILES IDX 17 1 15 2 14 3 24 4 23 5 18 6 16 7 19 9 20 11 21 12 22 13
REMARK SMILES IDX 13 15 2 16 1 17 3 18 4 19 5 20 12 21 6 22 10 23 7 24 8 25
REMARK SMILES IDX 11 26 9 28 25 30 26 31 27 32 28 33 29 34 30 35 37 36 31 37
REMARK SMILES IDX 35 38 32 39 33 40 36 41 34 43
REMARK H PARENT 16 8 19 10 22 14 11 27 9 29 36 42 34 44
ROOT
ATOM      1  C   UNL     1      -8.509  -1.980 -20.723  1.00  0.00     0.083 C 
ATOM      2  C   UNL     1      -7.652  -2.349 -21.931  1.00  0.00     0.162 C 
ATOM      3  C   UNL     1      -7.617  -1.208 -22.962  1.00  0.00     0.246 C 
ATOM      4  C   UNL     1      -9.041  -0.820 -23.410  1.00  0.00     0.223 C 
ATOM      5  C   UNL     1      -9.922  -0.476 -22.204  1.00  0.00     0.097 C 
ATOM      6  C   UNL     1      -9.930  -1.585 -21.151  1.00  0.00     0.168 C 
ENDROOT
BRANCH   2   7
ATOM      7  O   UNL     1      -8.225  -3.528 -22.521  1.00  0.00    -0.389 OA
ATOM      8  H   UNL     1      -7.813  -4.291 -22.068  1.00  0.00     0.211 HD
ENDBRANCH   2   7
BRANCH   6   9
ATOM      9  O   UNL     1     -10.636  -2.726 -21.683  1.00  0.00    -0.378 OA
ATOM     10  H   UNL     1      -9.998  -3.479 -21.699  1.00  0.00     0.212 HD
ENDBRANCH   6   9
BRANCH   6  11
ATOM     11  C   UNL     1     -10.712  -1.112 -19.917  1.00  0.00     0.335 C 
ATOM     12  O   UNL     1     -10.820  -1.736 -18.872  1.00  0.00    -0.249 OA
BRANCH  11  13
ATOM     13  O   UNL     1     -11.273   0.107 -20.120  1.00  0.00    -0.479 OA
ATOM     14  H   UNL     1     -10.539   0.722 -20.367  1.00  0.00     0.296 HD
ENDBRANCH  11  13
ENDBRANCH   6  11
BRANCH   3  15
ATOM     15  O   UNL     1      -6.878  -1.651 -24.122  1.00  0.00    -0.452 OA
BRANCH  15  16
ATOM     16  C   UNL     1      -5.809  -0.896 -24.466  1.00  0.00     0.331 C 
ATOM     17  O   UNL     1      -5.187  -0.152 -23.729  1.00  0.00    -0.247 OA
BRANCH  16  18
ATOM     18  C   UNL     1      -5.521  -1.138 -25.893  1.00  0.00     0.094 C 
ATOM     19  C   UNL     1      -4.397  -0.650 -26.438  1.00  0.00     0.016 C 
BRANCH  19  20
ATOM     20  C   UNL     1      -4.016  -0.839 -27.845  1.00  0.00    -0.021 A 
ATOM     21  C   UNL     1      -2.918  -0.120 -28.347  1.00  0.00     0.058 A 
ATOM     22  C   UNL     1      -4.744  -1.670 -28.714  1.00  0.00     0.012 A 
ATOM     23  C   UNL     1      -2.552  -0.261 -29.682  1.00  0.00     0.157 A 
ATOM     24  C   UNL     1      -4.369  -1.805 -30.054  1.00  0.00     0.051 A 
ATOM     25  C   UNL     1      -3.274  -1.100 -30.525  1.00  0.00     0.157 A 
BRANCH  23  26
ATOM     26  O   UNL     1      -1.486   0.410 -30.215  1.00  0.00    -0.504 OA
ATOM     27  H   UNL     1      -0.669  -0.008 -29.892  1.00  0.00     0.293 HD
ENDBRANCH  23  26
BRANCH  25  28
ATOM     28  O   UNL     1      -2.908  -1.231 -31.834  1.00  0.00    -0.504 OA
ATOM     29  H   UNL     1      -3.585  -0.730 -32.330  1.00  0.00     0.293 HD
ENDBRANCH  25  28
ENDBRANCH  19  20
ENDBRANCH  16  18
ENDBRANCH  15  16
ENDBRANCH   3  15
BRANCH   4  30
ATOM     30  O   UNL     1      -8.979   0.372 -24.229  1.00  0.00    -0.455 OA
BRANCH  30  31
ATOM     31  C   UNL     1      -9.384   0.252 -25.515  1.00  0.00     0.331 C 
ATOM     32  O   UNL     1     -10.425  -0.258 -25.903  1.00  0.00    -0.247 OA
BRANCH  31  33
ATOM     33  C   UNL     1      -8.397   0.820 -26.457  1.00  0.00     0.094 C 
ATOM     34  C   UNL     1      -8.256   0.431 -27.734  1.00  0.00     0.016 C 
BRANCH  34  35
ATOM     35  C   UNL     1      -7.276   1.028 -28.653  1.00  0.00    -0.021 A 
ATOM     36  C   UNL     1      -7.249   0.594 -29.987  1.00  0.00     0.058 A 
ATOM     37  C   UNL     1      -6.337   1.979 -28.219  1.00  0.00     0.012 A 
ATOM     38  C   UNL     1      -6.313   1.131 -30.866  1.00  0.00     0.157 A 
ATOM     39  C   UNL     1      -5.399   2.511 -29.109  1.00  0.00     0.051 A 
ATOM     40  C   UNL     1      -5.398   2.084 -30.426  1.00  0.00     0.157 A 
BRANCH  38  41
ATOM     41  O   UNL     1      -6.251   0.751 -32.178  1.00  0.00    -0.504 OA
ATOM     42  H   UNL     1      -7.054   0.245 -32.389  1.00  0.00     0.293 HD
ENDBRANCH  38  41
BRANCH  40  43
ATOM     43  O   UNL     1      -4.483   2.603 -31.294  1.00  0.00    -0.504 OA
ATOM     44  H   UNL     1      -3.619   2.291 -30.957  1.00  0.00     0.293 HD
ENDBRANCH  40  43
ENDBRANCH  34  35
ENDBRANCH  31  33
ENDBRANCH  30  31
ENDBRANCH   4  30
TORSDOF 16
ENDMDL
MODEL 3
REMARK VINA RESULT:      -8.8      1.927      4.272
REMARK SMILES O=C(/C=C/c1ccc(O)c(O)c1)O[C@@H]1[C@H](O)C[C@@](O)(C(=O)O)C[C@H]1OC(=O)/C=C/c1ccc(O)c(O)c1
REMARK SMILES IDX 17 1 15 2 14 3 24 4 23 5 18 6 16 7 19 9 20 11 21 12 22 13
REMARK SMILES IDX 13 15 2 16 1 17 3 18 4 19 5 20 12 21 6 22 10 23 7 24 8 25
REMARK SMILES IDX 11 26 9 28 25 30 26 31 27 32 28 33 29 34 30 35 37 36 31 37
REMARK SMILES IDX 35 38 32 39 33 40 36 41 34 43
REMARK H PARENT 16 8 19 10 22 14 11 27 9 29 36 42 34 44
ROOT
ATOM      1  C   UNL     1      -8.549  -2.220 -20.922  1.00  0.00     0.083 C 
ATOM      2  C   UNL     1      -7.683  -2.550 -22.135  1.00  0.00     0.162 C 
ATOM      3  C   UNL     1      -7.336  -1.284 -22.936  1.00  0.00     0.246 C 
ATOM      4  C   UNL     1      -8.611  -0.536 -23.373  1.00  0.00     0.223 C 
ATOM      5  C   UNL     1      -9.505  -0.225 -22.169  1.00  0.00     0.097 C 
ATOM      6  C   UNL     1      -9.822  -1.469 -21.338  1.00  0.00     0.168 C 
ENDROOT
BRANCH   2   7
ATOM      7  O   UNL     1      -8.425  -3.465 -22.957  1.00  0.00    -0.389 OA
ATOM      8  H   UNL     1      -8.124  -3.316 -23.877  1.00  0.00     0.211 HD
ENDBRANCH   2   7
BRANCH   6   9
ATOM      9  O   UNL     1     -10.692  -2.329 -22.104  1.00  0.00    -0.378 OA
ATOM     10  H   UNL     1     -11.557  -1.862 -22.191  1.00  0.00     0.212 HD
ENDBRANCH   6   9
BRANCH   6  11
ATOM     11  C   UNL     1     -10.597  -1.059 -20.077  1.00  0.00     0.335 C 
ATOM     12  O   UNL     1     -10.650  -1.707 -19.043  1.00  0.00    -0.249 OA
BRANCH  11  13
ATOM     13  O   UNL     1     -11.222   0.134 -20.243  1.00  0.00    -0.479 OA
ATOM     14  H   UNL     1     -10.525   0.834 -20.174  1.00  0.00     0.296 HD
ENDBRANCH  11  13
ENDBRANCH   6  11
BRANCH   3  15
ATOM     15  O   UNL     1      -6.603  -1.670 -24.121  1.00  0.00    -0.452 OA
BRANCH  15  16
ATOM     16  C   UNL     1      -5.548  -0.886 -24.445  1.00  0.00     0.331 C 
ATOM     17  O   UNL     1      -5.002  -0.077 -23.716  1.00  0.00    -0.247 OA
BRANCH  16  18
ATOM     18  C   UNL     1      -5.169  -1.188 -25.838  1.00  0.00     0.094 C 
ATOM     19  C   UNL     1      -4.540  -0.259 -26.574  1.00  0.00     0.016 C 
BRANCH  19  20
ATOM     20  C   UNL     1      -4.115  -0.461 -27.967  1.00  0.00    -0.021 A 
ATOM     21  C   UNL     1      -4.106   0.644 -28.834  1.00  0.00     0.058 A 
ATOM     22  C   UNL     1      -3.773  -1.728 -28.470  1.00  0.00     0.012 A 
ATOM     23  C   UNL     1      -3.733   0.475 -30.164  1.00  0.00     0.157 A 
ATOM     24  C   UNL     1      -3.400  -1.888 -29.808  1.00  0.00     0.051 A 
ATOM     25  C   UNL     1      -3.382  -0.783 -30.643  1.00  0.00     0.157 A 
BRANCH  23  26
ATOM     26  O   UNL     1      -3.699   1.522 -31.045  1.00  0.00    -0.504 OA
ATOM     27  H   UNL     1      -3.084   2.192 -30.700  1.00  0.00     0.293 HD
ENDBRANCH  23  26
BRANCH  25  28
ATOM     28  O   UNL     1      -3.019  -0.940 -31.949  1.00  0.00    -0.504 OA
ATOM     29  H   UNL     1      -2.333  -0.260 -32.098  1.00  0.00     0.293 HD
ENDBRANCH  25  28
ENDBRANCH  19  20
ENDBRANCH  16  18
ENDBRANCH  15  16
ENDBRANCH   3  15
BRANCH   4  30
ATOM     30  O   UNL     1      -8.245   0.738 -23.956  1.00  0.00    -0.455 OA
BRANCH  30  31
ATOM     31  C   UNL     1      -8.863   1.082 -25.111  1.00  0.00     0.331 C 
ATOM     32  O   UNL     1      -9.418   2.144 -25.348  1.00  0.00    -0.247 OA
BRANCH  31  33
ATOM     33  C   UNL     1      -8.805  -0.007 -26.108  1.00  0.00     0.094 C 
ATOM     34  C   UNL     1      -8.091   0.041 -27.244  1.00  0.00     0.016 C 
BRANCH  34  35
ATOM     35  C   UNL     1      -8.038  -1.067 -28.209  1.00  0.00    -0.021 A 
ATOM     36  C   UNL     1      -8.416  -2.351 -27.785  1.00  0.00     0.058 A 
ATOM     37  C   UNL     1      -7.573  -0.884 -29.523  1.00  0.00     0.012 A 
ATOM     38  C   UNL     1      -8.351  -3.416 -28.679  1.00  0.00     0.157 A 
ATOM     39  C   UNL     1      -7.510  -1.961 -30.411  1.00  0.00     0.051 A 
ATOM     40  C   UNL     1      -7.903  -3.217 -29.981  1.00  0.00     0.157 A 
BRANCH  38  41
ATOM     41  O   UNL     1      -8.718  -4.684 -28.321  1.00  0.00    -0.504 OA
ATOM     42  H   UNL     1      -8.261  -5.312 -28.906  1.00  0.00     0.293 HD
ENDBRANCH  38  41
BRANCH  40  43
ATOM     43  O   UNL     1      -7.841  -4.268 -30.850  1.00  0.00    -0.504 OA
ATOM     44  H   UNL     1      -8.744  -4.335 -31.220  1.00  0.00     0.293 HD
ENDBRANCH  40  43
ENDBRANCH  34  35
ENDBRANCH  31  33
ENDBRANCH  30  31
ENDBRANCH   4  30
TORSDOF 16
ENDMDL
MODEL 4
REMARK VINA RESULT:      -8.8      1.803      3.536
REMARK SMILES O=C(/C=C/c1ccc(O)c(O)c1)O[C@@H]1[C@H](O)C[C@@](O)(C(=O)O)C[C@H]1OC(=O)/C=C/c1ccc(O)c(O)c1
REMARK SMILES IDX 17 1 15 2 14 3 24 4 23 5 18 6 16 7 19 9 20 11 21 12 22 13
REMARK SMILES IDX 13 15 2 16 1 17 3 18 4 19 5 20 12 21 6 22 10 23 7 24 8 25
REMARK SMILES IDX 11 26 9 28 25 30 26 31 27 32 28 33 29 34 30 35 37 36 31 37
REMARK SMILES IDX 35 38 32 39 33 40 36 41 34 43
REMARK H PARENT 16 8 19 10 22 14 11 27 9 29 36 42 34 44
ROOT
ATOM      1  C   UNL     1      -9.875  -1.692 -22.229  1.00  0.00     0.083 C 
ATOM      2  C   UNL     1      -9.566  -0.290 -22.748  1.00  0.00     0.162 C 
ATOM      3  C   UNL     1      -8.441  -0.317 -23.796  1.00  0.00     0.246 C 
ATOM      4  C   UNL     1      -7.167  -0.974 -23.227  1.00  0.00     0.223 C 
ATOM      5  C   UNL     1      -7.468  -2.370 -22.674  1.00  0.00     0.097 C 
ATOM      6  C   UNL     1      -8.615  -2.363 -21.662  1.00  0.00     0.168 C 
ENDROOT
BRANCH   2   7
ATOM      7  O   UNL     1      -9.170   0.509 -21.621  1.00  0.00    -0.389 OA
ATOM      8  H   UNL     1      -9.746   0.240 -20.876  1.00  0.00     0.211 HD
ENDBRANCH   2   7
BRANCH   6   9
ATOM      9  O   UNL     1      -8.174  -1.689 -20.465  1.00  0.00    -0.378 OA
ATOM     10  H   UNL     1      -8.852  -1.864 -19.768  1.00  0.00     0.212 HD
ENDBRANCH   6   9
BRANCH   6  11
ATOM     11  C   UNL     1      -8.954  -3.807 -21.263  1.00  0.00     0.335 C 
ATOM     12  O   UNL     1      -8.921  -4.770 -22.013  1.00  0.00    -0.249 OA
BRANCH  11  13
ATOM     13  O   UNL     1      -9.292  -3.893 -19.951  1.00  0.00    -0.479 OA
ATOM     14  H   UNL     1      -8.447  -3.892 -19.437  1.00  0.00     0.296 HD
ENDBRANCH  11  13
ENDBRANCH   6  11
BRANCH   3  15
ATOM     15  O   UNL     1      -8.125   1.041 -24.175  1.00  0.00    -0.452 OA
BRANCH  15  16
ATOM     16  C   UNL     1      -8.479   1.402 -25.431  1.00  0.00     0.331 C 
ATOM     17  O   UNL     1      -8.727   2.533 -25.812  1.00  0.00    -0.247 OA
BRANCH  16  18
ATOM     18  C   UNL     1      -8.505   0.185 -26.263  1.00  0.00     0.094 C 
ATOM     19  C   UNL     1      -8.009   0.219 -27.510  1.00  0.00     0.016 C 
BRANCH  19  20
ATOM     20  C   UNL     1      -7.983  -0.938 -28.416  1.00  0.00    -0.021 A 
ATOM     21  C   UNL     1      -8.346  -2.197 -27.910  1.00  0.00     0.058 A 
ATOM     22  C   UNL     1      -7.556  -0.835 -29.752  1.00  0.00     0.012 A 
ATOM     23  C   UNL     1      -8.306  -3.314 -28.740  1.00  0.00     0.157 A 
ATOM     24  C   UNL     1      -7.518  -1.962 -30.578  1.00  0.00     0.051 A 
ATOM     25  C   UNL     1      -7.896  -3.192 -30.064  1.00  0.00     0.157 A 
BRANCH  23  26
ATOM     26  O   UNL     1      -8.659  -4.559 -28.296  1.00  0.00    -0.504 OA
ATOM     27  H   UNL     1      -9.500  -4.806 -28.717  1.00  0.00     0.293 HD
ENDBRANCH  23  26
BRANCH  25  28
ATOM     28  O   UNL     1      -7.858  -4.292 -30.871  1.00  0.00    -0.504 OA
ATOM     29  H   UNL     1      -7.112  -4.126 -31.480  1.00  0.00     0.293 HD
ENDBRANCH  25  28
ENDBRANCH  19  20
ENDBRANCH  16  18
ENDBRANCH  15  16
ENDBRANCH   3  15
BRANCH   4  30
ATOM     30  O   UNL     1      -6.201  -1.151 -24.291  1.00  0.00    -0.455 OA
BRANCH  30  31
ATOM     31  C   UNL     1      -5.248  -0.197 -24.417  1.00  0.00     0.331 C 
ATOM     32  O   UNL     1      -4.796   0.499 -23.520  1.00  0.00    -0.247 OA
BRANCH  31  33
ATOM     33  C   UNL     1      -4.787  -0.064 -25.814  1.00  0.00     0.094 C 
ATOM     34  C   UNL     1      -4.641  -1.091 -26.666  1.00  0.00     0.016 C 
BRANCH  34  35
ATOM     35  C   UNL     1      -4.197  -0.925 -28.058  1.00  0.00    -0.021 A 
ATOM     36  C   UNL     1      -4.156   0.367 -28.604  1.00  0.00     0.058 A 
ATOM     37  C   UNL     1      -3.865  -2.026 -28.866  1.00  0.00     0.012 A 
ATOM     38  C   UNL     1      -3.760   0.541 -29.928  1.00  0.00     0.157 A 
ATOM     39  C   UNL     1      -3.471  -1.840 -30.194  1.00  0.00     0.051 A 
ATOM     40  C   UNL     1      -3.420  -0.557 -30.712  1.00  0.00     0.157 A 
BRANCH  38  41
ATOM     41  O   UNL     1      -3.692   1.779 -30.505  1.00  0.00    -0.504 OA
ATOM     42  H   UNL     1      -3.835   2.449 -29.815  1.00  0.00     0.293 HD
ENDBRANCH  38  41
BRANCH  40  43
ATOM     43  O   UNL     1      -3.035  -0.377 -32.009  1.00  0.00    -0.504 OA
ATOM     44  H   UNL     1      -2.350  -1.059 -32.160  1.00  0.00     0.293 HD
ENDBRANCH  40  43
ENDBRANCH  34  35
ENDBRANCH  31  33
ENDBRANCH  30  31
ENDBRANCH   4  30
TORSDOF 16
ENDMDL
MODEL 5
REMARK VINA RESULT:      -8.7      2.282      2.987
REMARK SMILES O=C(/C=C/c1ccc(O)c(O)c1)O[C@@H]1[C@H](O)C[C@@](O)(C(=O)O)C[C@H]1OC(=O)/C=C/c1ccc(O)c(O)c1
REMARK SMILES IDX 17 1 15 2 14 3 24 4 23 5 18 6 16 7 19 9 20 11 21 12 22 13
REMARK SMILES IDX 13 15 2 16 1 17 3 18 4 19 5 20 12 21 6 22 10 23 7 24 8 25
REMARK SMILES IDX 11 26 9 28 25 30 26 31 27 32 28 33 29 34 30 35 37 36 31 37
REMARK SMILES IDX 35 38 32 39 33 40 36 41 34 43
REMARK H PARENT 16 8 19 10 22 14 11 27 9 29 36 42 34 44
ROOT
ATOM      1  C   UNL     1     -10.705  -3.485 -22.853  1.00  0.00     0.083 C 
ATOM      2  C   UNL     1     -11.084  -3.215 -24.307  1.00  0.00     0.162 C 
ATOM      3  C   UNL     1      -9.854  -2.819 -25.141  1.00  0.00     0.246 C 
ATOM      4  C   UNL     1      -9.142  -1.594 -24.534  1.00  0.00     0.223 C 
ATOM      5  C   UNL     1      -8.783  -1.839 -23.065  1.00  0.00     0.097 C 
ATOM      6  C   UNL     1      -9.989  -2.276 -22.233  1.00  0.00     0.168 C 
ENDROOT
BRANCH   2   7
ATOM      7  O   UNL     1     -12.045  -2.147 -24.310  1.00  0.00    -0.389 OA
ATOM      8  H   UNL     1     -11.742  -1.501 -23.639  1.00  0.00     0.211 HD
ENDBRANCH   2   7
BRANCH   6   9
ATOM      9  O   UNL     1     -10.895  -1.160 -22.106  1.00  0.00    -0.378 OA
ATOM     10  H   UNL     1     -11.778  -1.529 -21.864  1.00  0.00     0.212 HD
ENDBRANCH   6   9
BRANCH   6  11
ATOM     11  C   UNL     1      -9.528  -2.641 -20.815  1.00  0.00     0.335 C 
ATOM     12  O   UNL     1      -9.543  -1.885 -19.855  1.00  0.00    -0.249 OA
BRANCH  11  13
ATOM     13  O   UNL     1      -9.101  -3.928 -20.745  1.00  0.00    -0.479 OA
ATOM     14  H   UNL     1      -9.779  -4.425 -20.223  1.00  0.00     0.296 HD
ENDBRANCH  11  13
ENDBRANCH   6  11
BRANCH   3  15
ATOM     15  O   UNL     1     -10.288  -2.480 -26.478  1.00  0.00    -0.452 OA
BRANCH  15  16
ATOM     16  C   UNL     1      -9.861  -3.302 -27.464  1.00  0.00     0.331 C 
ATOM     17  O   UNL     1      -9.848  -4.520 -27.431  1.00  0.00    -0.247 OA
BRANCH  16  18
ATOM     18  C   UNL     1      -9.419  -2.464 -28.595  1.00  0.00     0.094 C 
ATOM     19  C   UNL     1      -9.872  -1.207 -28.709  1.00  0.00     0.016 C 
BRANCH  19  20
ATOM     20  C   UNL     1      -9.490  -0.290 -29.793  1.00  0.00    -0.021 A 
ATOM     21  C   UNL     1     -10.445   0.027 -30.773  1.00  0.00     0.058 A 
ATOM     22  C   UNL     1      -8.190   0.232 -29.910  1.00  0.00     0.012 A 
ATOM     23  C   UNL     1     -10.101   0.872 -31.825  1.00  0.00     0.157 A 
ATOM     24  C   UNL     1      -7.854   1.080 -30.970  1.00  0.00     0.051 A 
ATOM     25  C   UNL     1      -8.814   1.394 -31.917  1.00  0.00     0.157 A 
BRANCH  23  26
ATOM     26  O   UNL     1     -10.998   1.218 -32.798  1.00  0.00    -0.504 OA
ATOM     27  H   UNL     1     -11.163   0.437 -33.354  1.00  0.00     0.293 HD
ENDBRANCH  23  26
BRANCH  25  28
ATOM     28  O   UNL     1      -8.486   2.220 -32.952  1.00  0.00    -0.504 OA
ATOM     29  H   UNL     1      -8.866   1.790 -33.742  1.00  0.00     0.293 HD
ENDBRANCH  25  28
ENDBRANCH  19  20
ENDBRANCH  16  18
ENDBRANCH  15  16
ENDBRANCH   3  15
BRANCH   4  30
ATOM     30  O   UNL     1      -7.894  -1.369 -25.232  1.00  0.00    -0.455 OA
BRANCH  30  31
ATOM     31  C   UNL     1      -7.504  -0.081 -25.388  1.00  0.00     0.331 C 
ATOM     32  O   UNL     1      -7.817   0.862 -24.677  1.00  0.00    -0.247 OA
BRANCH  31  33
ATOM     33  C   UNL     1      -6.623   0.086 -26.562  1.00  0.00     0.094 C 
ATOM     34  C   UNL     1      -5.846  -0.882 -27.073  1.00  0.00     0.016 C 
BRANCH  34  35
ATOM     35  C   UNL     1      -4.994  -0.691 -28.255  1.00  0.00    -0.021 A 
ATOM     36  C   UNL     1      -4.789   0.612 -28.736  1.00  0.00     0.058 A 
ATOM     37  C   UNL     1      -4.425  -1.777 -28.942  1.00  0.00     0.012 A 
ATOM     38  C   UNL     1      -4.003   0.810 -29.868  1.00  0.00     0.157 A 
ATOM     39  C   UNL     1      -3.639  -1.567 -30.079  1.00  0.00     0.051 A 
ATOM     40  C   UNL     1      -3.433  -0.274 -30.530  1.00  0.00     0.157 A 
BRANCH  38  41
ATOM     41  O   UNL     1      -3.763   2.059 -30.372  1.00  0.00    -0.504 OA
ATOM     42  H   UNL     1      -2.809   2.141 -30.545  1.00  0.00     0.293 HD
ENDBRANCH  38  41
BRANCH  40  43
ATOM     43  O   UNL     1      -2.666  -0.069 -31.640  1.00  0.00    -0.504 OA
ATOM     44  H   UNL     1      -2.582   0.904 -31.706  1.00  0.00     0.293 HD
ENDBRANCH  40  43
ENDBRANCH  34  35
ENDBRANCH  31  33
ENDBRANCH  30  31
ENDBRANCH   4  30
TORSDOF 16
ENDMDL
MODEL 6
REMARK VINA RESULT:      -8.6      2.287      4.559
REMARK SMILES O=C(/C=C/c1ccc(O)c(O)c1)O[C@@H]1[C@H](O)C[C@@](O)(C(=O)O)C[C@H]1OC(=O)/C=C/c1ccc(O)c(O)c1
REMARK SMILES IDX 17 1 15 2 14 3 24 4 23 5 18 6 16 7 19 9 20 11 21 12 22 13
REMARK SMILES IDX 13 15 2 16 1 17 3 18 4 19 5 20 12 21 6 22 10 23 7 24 8 25
REMARK SMILES IDX 11 26 9 28 25 30 26 31 27 32 28 33 29 34 30 35 37 36 31 37
REMARK SMILES IDX 35 38 32 39 33 40 36 41 34 43
REMARK H PARENT 16 8 19 10 22 14 11 27 9 29 36 42 34 44
ROOT
ATOM      1  C   UNL     1      -8.072  -1.393 -22.110  1.00  0.00     0.083 C 
ATOM      2  C   UNL     1      -7.395  -1.033 -23.430  1.00  0.00     0.162 C 
ATOM      3  C   UNL     1      -8.405  -1.015 -24.590  1.00  0.00     0.246 C 
ATOM      4  C   UNL     1      -9.137  -2.367 -24.711  1.00  0.00     0.223 C 
ATOM      5  C   UNL     1      -9.796  -2.756 -23.384  1.00  0.00     0.097 C 
ATOM      6  C   UNL     1      -8.811  -2.735 -22.214  1.00  0.00     0.168 C 
ENDROOT
BRANCH   2   7
ATOM      7  O   UNL     1      -6.381  -2.020 -23.676  1.00  0.00    -0.389 OA
ATOM      8  H   UNL     1      -6.614  -2.449 -24.525  1.00  0.00     0.211 HD
ENDBRANCH   2   7
BRANCH   6   9
ATOM      9  O   UNL     1      -7.874  -3.820 -22.377  1.00  0.00    -0.378 OA
ATOM     10  H   UNL     1      -7.629  -3.849 -23.332  1.00  0.00     0.212 HD
ENDBRANCH   6   9
BRANCH   6  11
ATOM     11  C   UNL     1      -9.568  -2.992 -20.903  1.00  0.00     0.335 C 
ATOM     12  O   UNL     1     -10.419  -2.258 -20.427  1.00  0.00    -0.249 OA
BRANCH  11  13
ATOM     13  O   UNL     1      -9.181  -4.159 -20.326  1.00  0.00    -0.479 OA
ATOM     14  H   UNL     1      -9.616  -4.196 -19.438  1.00  0.00     0.296 HD
ENDBRANCH  11  13
ENDBRANCH   6  11
BRANCH   3  15
ATOM     15  O   UNL     1      -7.693  -0.768 -25.823  1.00  0.00    -0.452 OA
BRANCH  15  16
ATOM     16  C   UNL     1      -7.759   0.496 -26.301  1.00  0.00     0.331 C 
ATOM     17  O   UNL     1      -8.673   1.283 -26.131  1.00  0.00    -0.247 OA
BRANCH  16  18
ATOM     18  C   UNL     1      -6.522   0.760 -27.061  1.00  0.00     0.094 C 
ATOM     19  C   UNL     1      -5.796  -0.267 -27.530  1.00  0.00     0.016 C 
BRANCH  19  20
ATOM     20  C   UNL     1      -4.555  -0.111 -28.302  1.00  0.00    -0.021 A 
ATOM     21  C   UNL     1      -4.549  -0.502 -29.651  1.00  0.00     0.058 A 
ATOM     22  C   UNL     1      -3.365   0.361 -27.721  1.00  0.00     0.012 A 
ATOM     23  C   UNL     1      -3.380  -0.390 -30.397  1.00  0.00     0.157 A 
ATOM     24  C   UNL     1      -2.195   0.470 -28.478  1.00  0.00     0.051 A 
ATOM     25  C   UNL     1      -2.214   0.095 -29.812  1.00  0.00     0.157 A 
BRANCH  23  26
ATOM     26  O   UNL     1      -3.325  -0.747 -31.717  1.00  0.00    -0.504 OA
ATOM     27  H   UNL     1      -3.273  -1.717 -31.769  1.00  0.00     0.293 HD
ENDBRANCH  23  26
BRANCH  25  28
ATOM     28  O   UNL     1      -1.071   0.201 -30.551  1.00  0.00    -0.504 OA
ATOM     29  H   UNL     1      -0.980   1.158 -30.729  1.00  0.00     0.293 HD
ENDBRANCH  25  28
ENDBRANCH  19  20
ENDBRANCH  16  18
ENDBRANCH  15  16
ENDBRANCH   3  15
BRANCH   4  30
ATOM     30  O   UNL     1     -10.204  -2.250 -25.683  1.00  0.00    -0.455 OA
BRANCH  30  31
ATOM     31  C   UNL     1      -9.975  -2.781 -26.908  1.00  0.00     0.331 C 
ATOM     32  O   UNL     1      -9.728  -3.951 -27.156  1.00  0.00    -0.247 OA
BRANCH  31  33
ATOM     33  C   UNL     1     -10.051  -1.757 -27.971  1.00  0.00     0.094 C 
ATOM     34  C   UNL     1      -9.223  -1.697 -29.026  1.00  0.00     0.016 C 
BRANCH  34  35
ATOM     35  C   UNL     1      -9.334  -0.677 -30.078  1.00  0.00    -0.021 A 
ATOM     36  C   UNL     1     -10.300  -0.845 -31.083  1.00  0.00     0.058 A 
ATOM     37  C   UNL     1      -8.469   0.429 -30.133  1.00  0.00     0.012 A 
ATOM     38  C   UNL     1     -10.405   0.099 -32.101  1.00  0.00     0.157 A 
ATOM     39  C   UNL     1      -8.580   1.370 -31.160  1.00  0.00     0.051 A 
ATOM     40  C   UNL     1      -9.550   1.198 -32.134  1.00  0.00     0.157 A 
BRANCH  38  41
ATOM     41  O   UNL     1     -11.335  -0.011 -33.097  1.00  0.00    -0.504 OA
ATOM     42  H   UNL     1     -11.301  -0.916 -33.450  1.00  0.00     0.293 HD
ENDBRANCH  38  41
BRANCH  40  43
ATOM     43  O   UNL     1      -9.659   2.117 -33.136  1.00  0.00    -0.504 OA
ATOM     44  H   UNL     1      -9.607   1.591 -33.960  1.00  0.00     0.293 HD
ENDBRANCH  40  43
ENDBRANCH  34  35
ENDBRANCH  31  33
ENDBRANCH  30  31
ENDBRANCH   4  30
TORSDOF 16
ENDMDL
MODEL 7
REMARK VINA RESULT:      -8.3      2.897      4.071
REMARK SMILES O=C(/C=C/c1ccc(O)c(O)c1)O[C@@H]1[C@H](O)C[C@@](O)(C(=O)O)C[C@H]1OC(=O)/C=C/c1ccc(O)c(O)c1
REMARK SMILES IDX 17 1 15 2 14 3 24 4 23 5 18 6 16 7 19 9 20 11 21 12 22 13
REMARK SMILES IDX 13 15 2 16 1 17 3 18 4 19 5 20 12 21 6 22 10 23 7 24 8 25
REMARK SMILES IDX 11 26 9 28 25 30 26 31 27 32 28 33 29 34 30 35 37 36 31 37
REMARK SMILES IDX 35 38 32 39 33 40 36 41 34 43
REMARK H PARENT 16 8 19 10 22 14 11 27 9 29 36 42 34 44
ROOT
ATOM      1  C   UNL     1     -11.469  -3.108 -24.533  1.00  0.00     0.083 C 
ATOM      2  C   UNL     1     -10.238  -2.223 -24.708  1.00  0.00     0.162 C 
ATOM      3  C   UNL     1      -9.912  -2.006 -26.195  1.00  0.00     0.246 C 
ATOM      4  C   UNL     1      -9.715  -3.351 -26.923  1.00  0.00     0.223 C 
ATOM      5  C   UNL     1     -10.931  -4.263 -26.730  1.00  0.00     0.097 C 
ATOM      6  C   UNL     1     -11.293  -4.451 -25.257  1.00  0.00     0.168 C 
ENDROOT
BRANCH   2   7
ATOM      7  O   UNL     1      -9.140  -2.879 -24.054  1.00  0.00    -0.389 OA
ATOM      8  H   UNL     1      -9.497  -3.252 -23.222  1.00  0.00     0.211 HD
ENDBRANCH   2   7
BRANCH   6   9
ATOM      9  O   UNL     1     -10.263  -5.239 -24.623  1.00  0.00    -0.378 OA
ATOM     10  H   UNL     1     -10.059  -4.807 -23.759  1.00  0.00     0.212 HD
ENDBRANCH   6   9
BRANCH   6  11
ATOM     11  C   UNL     1     -12.598  -5.253 -25.149  1.00  0.00     0.335 C 
ATOM     12  O   UNL     1     -12.789  -6.354 -25.642  1.00  0.00    -0.249 OA
BRANCH  11  13
ATOM     13  O   UNL     1     -13.531  -4.590 -24.419  1.00  0.00    -0.479 OA
ATOM     14  H   UNL     1     -13.656  -3.708 -24.850  1.00  0.00     0.296 HD
ENDBRANCH  11  13
ENDBRANCH   6  11
BRANCH   3  15
ATOM     15  O   UNL     1      -8.686  -1.247 -26.297  1.00  0.00    -0.452 OA
BRANCH  15  16
ATOM     16  C   UNL     1      -8.829   0.088 -26.468  1.00  0.00     0.331 C 
ATOM     17  O   UNL     1      -9.311   0.869 -25.667  1.00  0.00    -0.247 OA
BRANCH  16  18
ATOM     18  C   UNL     1      -8.290   0.436 -27.797  1.00  0.00     0.094 C 
ATOM     19  C   UNL     1      -8.997   0.147 -28.900  1.00  0.00     0.016 C 
BRANCH  19  20
ATOM     20  C   UNL     1      -8.553   0.455 -30.266  1.00  0.00    -0.021 A 
ATOM     21  C   UNL     1      -9.047  -0.323 -31.326  1.00  0.00     0.058 A 
ATOM     22  C   UNL     1      -7.612   1.463 -30.539  1.00  0.00     0.012 A 
ATOM     23  C   UNL     1      -8.623  -0.069 -32.627  1.00  0.00     0.157 A 
ATOM     24  C   UNL     1      -7.190   1.711 -31.849  1.00  0.00     0.051 A 
ATOM     25  C   UNL     1      -7.703   0.944 -32.882  1.00  0.00     0.157 A 
BRANCH  23  26
ATOM     26  O   UNL     1      -9.082  -0.792 -33.693  1.00  0.00    -0.504 OA
ATOM     27  H   UNL     1      -8.463  -1.525 -33.855  1.00  0.00     0.293 HD
ENDBRANCH  23  26
BRANCH  25  28
ATOM     28  O   UNL     1      -7.291   1.186 -34.160  1.00  0.00    -0.504 OA
ATOM     29  H   UNL     1      -7.322   0.313 -34.599  1.00  0.00     0.293 HD
ENDBRANCH  25  28
ENDBRANCH  19  20
ENDBRANCH  16  18
ENDBRANCH  15  16
ENDBRANCH   3  15
BRANCH   4  30
ATOM     30  O   UNL     1      -9.599  -3.114 -28.347  1.00  0.00    -0.455 OA
BRANCH  30  31
ATOM     31  C   UNL     1      -8.569  -3.719 -28.985  1.00  0.00     0.331 C 
ATOM     32  O   UNL     1      -8.625  -4.754 -29.632  1.00  0.00    -0.247 OA
BRANCH  31  33
ATOM     33  C   UNL     1      -7.304  -2.976 -28.811  1.00  0.00     0.094 C 
ATOM     34  C   UNL     1      -6.545  -2.522 -29.822  1.00  0.00     0.016 C 
BRANCH  34  35
ATOM     35  C   UNL     1      -5.300  -1.769 -29.617  1.00  0.00    -0.021 A 
ATOM     36  C   UNL     1      -4.800  -0.989 -30.672  1.00  0.00     0.058 A 
ATOM     37  C   UNL     1      -4.573  -1.850 -28.417  1.00  0.00     0.012 A 
ATOM     38  C   UNL     1      -3.610  -0.287 -30.505  1.00  0.00     0.157 A 
ATOM     39  C   UNL     1      -3.378  -1.143 -28.260  1.00  0.00     0.051 A 
ATOM     40  C   UNL     1      -2.908  -0.365 -29.305  1.00  0.00     0.157 A 
BRANCH  38  41
ATOM     41  O   UNL     1      -3.086   0.495 -31.497  1.00  0.00    -0.504 OA
ATOM     42  H   UNL     1      -2.617   1.241 -31.084  1.00  0.00     0.293 HD
ENDBRANCH  38  41
BRANCH  40  43
ATOM     43  O   UNL     1      -1.742   0.325 -29.151  1.00  0.00    -0.504 OA
ATOM     44  H   UNL     1      -1.169  -0.273 -28.629  1.00  0.00     0.293 HD
ENDBRANCH  40  43
ENDBRANCH  34  35
ENDBRANCH  31  33
ENDBRANCH  30  31
ENDBRANCH   4  30
TORSDOF 16
ENDMDL
MODEL 8
REMARK VINA RESULT:      -8.2      2.411      4.715
REMARK SMILES O=C(/C=C/c1ccc(O)c(O)c1)O[C@@H]1[C@H](O)C[C@@](O)(C(=O)O)C[C@H]1OC(=O)/C=C/c1ccc(O)c(O)c1
REMARK SMILES IDX 17 1 15 2 14 3 24 4 23 5 18 6 16 7 19 9 20 11 21 12 22 13
REMARK SMILES IDX 13 15 2 16 1 17 3 18 4 19 5 20 12 21 6 22 10 23 7 24 8 25
REMARK SMILES IDX 11 26 9 28 25 30 26 31 27 32 28 33 29 34 30 35 37 36 31 37
REMARK SMILES IDX 35 38 32 39 33 40 36 41 34 43
REMARK H PARENT 16 8 19 10 22 14 11 27 9 29 36 42 34 44
ROOT
ATOM      1  C   UNL     1     -10.481  -4.420 -25.892  1.00  0.00     0.083 C 
ATOM      2  C   UNL     1     -10.252  -4.565 -27.394  1.00  0.00     0.162 C 
ATOM      3  C   UNL     1      -9.535  -3.334 -27.973  1.00  0.00     0.246 C 
ATOM      4  C   UNL     1     -10.319  -2.040 -27.670  1.00  0.00     0.223 C 
ATOM      5  C   UNL     1     -10.582  -1.897 -26.167  1.00  0.00     0.097 C 
ATOM      6  C   UNL     1     -11.256  -3.133 -25.571  1.00  0.00     0.168 C 
ENDROOT
BRANCH   2   7
ATOM      7  O   UNL     1     -11.540  -4.720 -28.012  1.00  0.00    -0.389 OA
ATOM      8  H   UNL     1     -11.449  -5.446 -28.662  1.00  0.00     0.211 HD
ENDBRANCH   2   7
BRANCH   6   9
ATOM      9  O   UNL     1     -12.606  -3.215 -26.074  1.00  0.00    -0.378 OA
ATOM     10  H   UNL     1     -12.632  -3.968 -26.712  1.00  0.00     0.212 HD
ENDBRANCH   6   9
BRANCH   6  11
ATOM     11  C   UNL     1     -11.357  -2.976 -24.047  1.00  0.00     0.335 C 
ATOM     12  O   UNL     1     -11.393  -3.898 -23.246  1.00  0.00    -0.249 OA
BRANCH  11  13
ATOM     13  O   UNL     1     -11.393  -1.669 -23.682  1.00  0.00    -0.479 OA
ATOM     14  H   UNL     1     -12.029  -1.220 -24.293  1.00  0.00     0.296 HD
ENDBRANCH  11  13
ENDBRANCH   6  11
BRANCH   3  15
ATOM     15  O   UNL     1      -9.437  -3.484 -29.407  1.00  0.00    -0.452 OA
BRANCH  15  16
ATOM     16  C   UNL     1      -8.209  -3.792 -29.886  1.00  0.00     0.331 C 
ATOM     17  O   UNL     1      -7.957  -4.632 -30.732  1.00  0.00    -0.247 OA
BRANCH  16  18
ATOM     18  C   UNL     1      -7.226  -2.925 -29.209  1.00  0.00     0.094 C 
ATOM     19  C   UNL     1      -6.149  -2.488 -29.880  1.00  0.00     0.016 C 
BRANCH  19  20
ATOM     20  C   UNL     1      -5.116  -1.618 -29.299  1.00  0.00    -0.021 A 
ATOM     21  C   UNL     1      -4.264  -0.915 -30.167  1.00  0.00     0.058 A 
ATOM     22  C   UNL     1      -4.919  -1.511 -27.912  1.00  0.00     0.012 A 
ATOM     23  C   UNL     1      -3.261  -0.105 -29.644  1.00  0.00     0.157 A 
ATOM     24  C   UNL     1      -3.908  -0.695 -27.395  1.00  0.00     0.051 A 
ATOM     25  C   UNL     1      -3.089   0.003 -28.268  1.00  0.00     0.157 A 
BRANCH  23  26
ATOM     26  O   UNL     1      -2.412   0.607 -30.447  1.00  0.00    -0.504 OA
ATOM     27  H   UNL     1      -2.940   1.242 -30.962  1.00  0.00     0.293 HD
ENDBRANCH  23  26
BRANCH  25  28
ATOM     28  O   UNL     1      -2.101   0.799 -27.763  1.00  0.00    -0.504 OA
ATOM     29  H   UNL     1      -1.523   0.989 -28.527  1.00  0.00     0.293 HD
ENDBRANCH  25  28
ENDBRANCH  19  20
ENDBRANCH  16  18
ENDBRANCH  15  16
ENDBRANCH   3  15
BRANCH   4  30
ATOM     30  O   UNL     1      -9.525  -0.895 -28.061  1.00  0.00    -0.455 OA
BRANCH  30  31
ATOM     31  C   UNL     1      -9.787  -0.355 -29.275  1.00  0.00     0.331 C 
ATOM     32  O   UNL     1     -10.778  -0.559 -29.961  1.00  0.00    -0.247 OA
BRANCH  31  33
ATOM     33  C   UNL     1      -8.703   0.544 -29.721  1.00  0.00     0.094 C 
ATOM     34  C   UNL     1      -7.659   0.909 -28.961  1.00  0.00     0.016 C 
BRANCH  34  35
ATOM     35  C   UNL     1      -6.585   1.792 -29.439  1.00  0.00    -0.021 A 
ATOM     36  C   UNL     1      -5.820   2.496 -28.496  1.00  0.00     0.058 A 
ATOM     37  C   UNL     1      -6.341   1.988 -30.809  1.00  0.00     0.012 A 
ATOM     38  C   UNL     1      -4.814   3.355 -28.931  1.00  0.00     0.157 A 
ATOM     39  C   UNL     1      -5.330   2.853 -31.235  1.00  0.00     0.051 A 
ATOM     40  C   UNL     1      -4.573   3.527 -30.291  1.00  0.00     0.157 A 
BRANCH  38  41
ATOM     41  O   UNL     1      -4.032   4.055 -28.055  1.00  0.00    -0.504 OA
ATOM     42  H   UNL     1      -3.741   4.874 -28.491  1.00  0.00     0.293 HD
ENDBRANCH  38  41
BRANCH  40  43
ATOM     43  O   UNL     1      -3.586   4.372 -30.708  1.00  0.00    -0.504 OA
ATOM     44  H   UNL     1      -3.543   5.061 -30.015  1.00  0.00     0.293 HD
ENDBRANCH  40  43
ENDBRANCH  34  35
ENDBRANCH  31  33
ENDBRANCH  30  31
ENDBRANCH   4  30
TORSDOF 16
ENDMDL
MODEL 9
REMARK VINA RESULT:      -8.2      3.322      4.673
REMARK SMILES O=C(/C=C/c1ccc(O)c(O)c1)O[C@@H]1[C@H](O)C[C@@](O)(C(=O)O)C[C@H]1OC(=O)/C=C/c1ccc(O)c(O)c1
REMARK SMILES IDX 17 1 15 2 14 3 24 4 23 5 18 6 16 7 19 9 20 11 21 12 22 13
REMARK SMILES IDX 13 15 2 16 1 17 3 18 4 19 5 20 12 21 6 22 10 23 7 24 8 25
REMARK SMILES IDX 11 26 9 28 25 30 26 31 27 32 28 33 29 34 30 35 37 36 31 37
REMARK SMILES IDX 35 38 32 39 33 40 36 41 34 43
REMARK H PARENT 16 8 19 10 22 14 11 27 9 29 36 42 34 44
ROOT
ATOM      1  C   UNL     1     -10.594  -5.469 -25.233  1.00  0.00     0.083 C 
ATOM      2  C   UNL     1     -10.915  -5.562 -26.722  1.00  0.00     0.162 C 
ATOM      3  C   UNL     1     -10.131  -4.515 -27.531  1.00  0.00     0.246 C 
ATOM      4  C   UNL     1     -10.407  -3.090 -27.009  1.00  0.00     0.223 C 
ATOM      5  C   UNL     1     -10.117  -2.989 -25.508  1.00  0.00     0.097 C 
ATOM      6  C   UNL     1     -10.857  -4.054 -24.697  1.00  0.00     0.168 C 
ENDROOT
BRANCH   2   7
ATOM      7  O   UNL     1     -12.328  -5.343 -26.872  1.00  0.00    -0.389 OA
ATOM      8  H   UNL     1     -12.469  -4.380 -26.773  1.00  0.00     0.211 HD
ENDBRANCH   2   7
BRANCH   6   9
ATOM      9  O   UNL     1     -12.269  -3.757 -24.719  1.00  0.00    -0.378 OA
ATOM     10  H   UNL     1     -12.382  -2.931 -25.248  1.00  0.00     0.212 HD
ENDBRANCH   6   9
BRANCH   6  11
ATOM     11  C   UNL     1     -10.409  -3.983 -23.230  1.00  0.00     0.335 C 
ATOM     12  O   UNL     1      -9.418  -4.530 -22.770  1.00  0.00    -0.249 OA
BRANCH  11  13
ATOM     13  O   UNL     1     -11.252  -3.220 -22.488  1.00  0.00    -0.479 OA
ATOM     14  H   UNL     1     -11.984  -3.813 -22.187  1.00  0.00     0.296 HD
ENDBRANCH  11  13
ENDBRANCH   6  11
BRANCH   3  15
ATOM     15  O   UNL     1     -10.550  -4.585 -28.913  1.00  0.00    -0.452 OA
BRANCH  15  16
ATOM     16  C   UNL     1      -9.607  -4.984 -29.797  1.00  0.00     0.331 C 
ATOM     17  O   UNL     1      -9.272  -6.133 -30.021  1.00  0.00    -0.247 OA
BRANCH  16  18
ATOM     18  C   UNL     1      -9.058  -3.780 -30.450  1.00  0.00     0.094 C 
ATOM     19  C   UNL     1      -9.874  -2.763 -30.766  1.00  0.00     0.016 C 
BRANCH  19  20
ATOM     20  C   UNL     1      -9.426  -1.521 -31.413  1.00  0.00    -0.021 A 
ATOM     21  C   UNL     1     -10.397  -0.628 -31.897  1.00  0.00     0.058 A 
ATOM     22  C   UNL     1      -8.066  -1.225 -31.610  1.00  0.00     0.012 A 
ATOM     23  C   UNL     1     -10.001   0.543 -32.536  1.00  0.00     0.157 A 
ATOM     24  C   UNL     1      -7.678  -0.047 -32.254  1.00  0.00     0.051 A 
ATOM     25  C   UNL     1      -8.650   0.829 -32.709  1.00  0.00     0.157 A 
BRANCH  23  26
ATOM     26  O   UNL     1     -10.907   1.449 -33.016  1.00  0.00    -0.504 OA
ATOM     27  H   UNL     1     -10.830   1.474 -33.985  1.00  0.00     0.293 HD
ENDBRANCH  23  26
BRANCH  25  28
ATOM     28  O   UNL     1      -8.270   1.979 -33.338  1.00  0.00    -0.504 OA
ATOM     29  H   UNL     1      -7.853   1.679 -34.170  1.00  0.00     0.293 HD
ENDBRANCH  25  28
ENDBRANCH  19  20
ENDBRANCH  16  18
ENDBRANCH  15  16
ENDBRANCH   3  15
BRANCH   4  30
ATOM     30  O   UNL     1      -9.514  -2.157 -27.665  1.00  0.00    -0.455 OA
BRANCH  30  31
ATOM     31  C   UNL     1      -9.756  -0.839 -27.469  1.00  0.00     0.331 C 
ATOM     32  O   UNL     1     -10.607  -0.360 -26.735  1.00  0.00    -0.247 OA
BRANCH  31  33
ATOM     33  C   UNL     1      -8.851   0.009 -28.272  1.00  0.00     0.094 C 
ATOM     34  C   UNL     1      -7.549   0.197 -28.004  1.00  0.00     0.016 C 
BRANCH  34  35
ATOM     35  C   UNL     1      -6.670   1.032 -28.833  1.00  0.00    -0.021 A 
ATOM     36  C   UNL     1      -5.296   0.745 -28.865  1.00  0.00     0.058 A 
ATOM     37  C   UNL     1      -7.158   2.138 -29.551  1.00  0.00     0.012 A 
ATOM     38  C   UNL     1      -4.444   1.540 -29.626  1.00  0.00     0.157 A 
ATOM     39  C   UNL     1      -6.294   2.932 -30.311  1.00  0.00     0.051 A 
ATOM     40  C   UNL     1      -4.944   2.623 -30.343  1.00  0.00     0.157 A 
BRANCH  38  41
ATOM     41  O   UNL     1      -3.100   1.296 -29.700  1.00  0.00    -0.504 OA
ATOM     42  H   UNL     1      -2.965   0.474 -30.202  1.00  0.00     0.293 HD
ENDBRANCH  38  41
BRANCH  40  43
ATOM     43  O   UNL     1      -4.101   3.397 -31.086  1.00  0.00    -0.504 OA
ATOM     44  H   UNL     1      -3.802   4.096 -30.469  1.00  0.00     0.293 HD
ENDBRANCH  40  43
ENDBRANCH  34  35
ENDBRANCH  31  33
ENDBRANCH  30  31
ENDBRANCH   4  30
TORSDOF 16
ENDMDL
MODEL 10
REMARK VINA RESULT:      -8.0      2.469      5.688
REMARK SMILES O=C(/C=C/c1ccc(O)c(O)c1)O[C@@H]1[C@H](O)C[C@@](O)(C(=O)O)C[C@H]1OC(=O)/C=C/c1ccc(O)c(O)c1
REMARK SMILES IDX 17 1 15 2 14 3 24 4 23 5 18 6 16 7 19 9 20 11 21 12 22 13
REMARK SMILES IDX 13 15 2 16 1 17 3 18 4 19 5 20 12 21 6 22 10 23 7 24 8 25
REMARK SMILES IDX 11 26 9 28 25 30 26 31 27 32 28 33 29 34 30 35 37 36 31 37
REMARK SMILES IDX 35 38 32 39 33 40 36 41 34 43
REMARK H PARENT 16 8 19 10 22 14 11 27 9 29 36 42 34 44
ROOT
ATOM      1  C   UNL     1      -8.254  -1.862 -20.820  1.00  0.00     0.083 C 
ATOM      2  C   UNL     1      -7.335  -2.181 -21.996  1.00  0.00     0.162 C 
ATOM      3  C   UNL     1      -7.384  -1.071 -23.060  1.00  0.00     0.246 C 
ATOM      4  C   UNL     1      -8.827  -0.835 -23.552  1.00  0.00     0.223 C 
ATOM      5  C   UNL     1      -9.767  -0.544 -22.377  1.00  0.00     0.097 C 
ATOM      6  C   UNL     1      -9.695  -1.618 -21.291  1.00  0.00     0.168 C 
ENDROOT
BRANCH   2   7
ATOM      7  O   UNL     1      -7.778  -3.425 -22.563  1.00  0.00    -0.389 OA
ATOM      8  H   UNL     1      -7.257  -4.128 -22.125  1.00  0.00     0.211 HD
ENDBRANCH   2   7
BRANCH   6   9
ATOM      9  O   UNL     1     -10.275  -2.837 -21.804  1.00  0.00    -0.378 OA
ATOM     10  H   UNL     1     -11.226  -2.649 -21.988  1.00  0.00     0.212 HD
ENDBRANCH   6   9
BRANCH   6  11
ATOM     11  C   UNL     1     -10.549  -1.189 -20.089  1.00  0.00     0.335 C 
ATOM     12  O   UNL     1     -10.706  -1.843 -19.069  1.00  0.00    -0.249 OA
BRANCH  11  13
ATOM     13  O   UNL     1     -11.116   0.028 -20.291  1.00  0.00    -0.479 OA
ATOM     14  H   UNL     1     -10.867   0.311 -21.205  1.00  0.00     0.296 HD
ENDBRANCH  11  13
ENDBRANCH   6  11
BRANCH   3  15
ATOM     15  O   UNL     1      -6.577  -1.473 -24.190  1.00  0.00    -0.452 OA
BRANCH  15  16
ATOM     16  C   UNL     1      -5.512  -0.685 -24.466  1.00  0.00     0.331 C 
ATOM     17  O   UNL     1      -5.036   0.164 -23.733  1.00  0.00    -0.247 OA
BRANCH  16  18
ATOM     18  C   UNL     1      -5.022  -1.038 -25.812  1.00  0.00     0.094 C 
ATOM     19  C   UNL     1      -4.834  -0.074 -26.727  1.00  0.00     0.016 C 
BRANCH  19  20
ATOM     20  C   UNL     1      -4.346  -0.320 -28.091  1.00  0.00    -0.021 A 
ATOM     21  C   UNL     1      -3.054   0.116 -28.431  1.00  0.00     0.058 A 
ATOM     22  C   UNL     1      -5.145  -0.925 -29.077  1.00  0.00     0.012 A 
ATOM     23  C   UNL     1      -2.576  -0.081 -29.723  1.00  0.00     0.157 A 
ATOM     24  C   UNL     1      -4.657  -1.118 -30.373  1.00  0.00     0.051 A 
ATOM     25  C   UNL     1      -3.374  -0.696 -30.683  1.00  0.00     0.157 A 
BRANCH  23  26
ATOM     26  O   UNL     1      -1.323   0.317 -30.100  1.00  0.00    -0.504 OA
ATOM     27  H   UNL     1      -1.025  -0.260 -30.825  1.00  0.00     0.293 HD
ENDBRANCH  23  26
BRANCH  25  28
ATOM     28  O   UNL     1      -2.898  -0.884 -31.948  1.00  0.00    -0.504 OA
ATOM     29  H   UNL     1      -2.798   0.018 -32.311  1.00  0.00     0.293 HD
ENDBRANCH  25  28
ENDBRANCH  19  20
ENDBRANCH  16  18
ENDBRANCH  15  16
ENDBRANCH   3  15
BRANCH   4  30
ATOM     30  O   UNL     1      -8.859   0.335 -24.405  1.00  0.00    -0.455 OA
BRANCH  30  31
ATOM     31  C   UNL     1      -8.950   0.116 -25.738  1.00  0.00     0.331 C 
ATOM     32  O   UNL     1      -8.756   0.937 -26.622  1.00  0.00    -0.247 OA
BRANCH  31  33
ATOM     33  C   UNL     1      -9.334  -1.278 -26.040  1.00  0.00     0.094 C 
ATOM     34  C   UNL     1     -10.579  -1.671 -26.353  1.00  0.00     0.016 C 
BRANCH  34  35
ATOM     35  C   UNL     1     -10.928  -3.064 -26.667  1.00  0.00    -0.021 A 
ATOM     36  C   UNL     1     -10.018  -3.839 -27.404  1.00  0.00     0.058 A 
ATOM     37  C   UNL     1     -12.164  -3.621 -26.296  1.00  0.00     0.012 A 
ATOM     38  C   UNL     1     -10.341  -5.153 -27.731  1.00  0.00     0.157 A 
ATOM     39  C   UNL     1     -12.479  -4.941 -26.630  1.00  0.00     0.051 A 
ATOM     40  C   UNL     1     -11.563  -5.696 -27.343  1.00  0.00     0.157 A 
BRANCH  38  41
ATOM     41  O   UNL     1      -9.486  -5.954 -28.437  1.00  0.00    -0.504 OA
ATOM     42  H   UNL     1      -9.681  -6.881 -28.216  1.00  0.00     0.293 HD
ENDBRANCH  38  41
BRANCH  40  43
ATOM     43  O   UNL     1     -11.871  -6.984 -27.669  1.00  0.00    -0.504 OA
ATOM     44  H   UNL     1     -12.096  -6.951 -28.621  1.00  0.00     0.293 HD
ENDBRANCH  40  43
ENDBRANCH  34  35
ENDBRANCH  31  33
ENDBRANCH  30  31
ENDBRANCH   4  30
TORSDOF 16
ENDMDL
