MODEL 1
REMARK VINA RESULT:      -8.1      0.000      0.000
REMARK SMILES O=C(C=Cc1ccc(O)c(O)c1)O[C@@H](Cc1ccc(O)c(O)c1)C(=O)O
REMARK SMILES IDX 13 1 14 2 15 3 16 4 17 5 18 6 19 7 23 8 21 9 20 10 22 12
REMARK SMILES IDX 24 14 25 15 26 16 2 18 1 19 3 20 4 21 5 22 12 23 6 24 10 25
REMARK SMILES IDX 7 26 8 27 11 28 9 30
REMARK H PARENT 20 11 22 13 26 17 11 29 9 31
ROOT
ATOM      1  O   UNL     1      -9.021  -1.332 -32.373  1.00  0.00    -0.447 OA
ENDROOT
BRANCH   1   2
ATOM      2  C   UNL     1      -9.299   0.078 -32.216  1.00  0.00     0.290 C 
BRANCH   2   3
ATOM      3  C   UNL     1      -8.309   0.951 -33.002  1.00  0.00     0.093 C 
BRANCH   3   4
ATOM      4  C   UNL     1      -7.118   1.407 -32.185  1.00  0.00    -0.040 A 
ATOM      5  C   UNL     1      -7.302   2.188 -31.031  1.00  0.00     0.008 A 
ATOM      6  C   UNL     1      -6.207   2.642 -30.290  1.00  0.00     0.050 A 
ATOM      7  C   UNL     1      -4.924   2.316 -30.709  1.00  0.00     0.157 A 
ATOM      8  C   UNL     1      -5.815   1.080 -32.587  1.00  0.00     0.054 A 
ATOM      9  C   UNL     1      -4.733   1.541 -31.850  1.00  0.00     0.157 A 
BRANCH   7  10
ATOM     10  O   UNL     1      -3.813   2.735 -30.033  1.00  0.00    -0.504 OA
ATOM     11  H   UNL     1      -3.185   1.993 -29.995  1.00  0.00     0.293 HD
ENDBRANCH   7  10
BRANCH   9  12
ATOM     12  O   UNL     1      -3.470   1.230 -32.261  1.00  0.00    -0.504 OA
ATOM     13  H   UNL     1      -3.585   0.904 -33.177  1.00  0.00     0.293 HD
ENDBRANCH   9  12
ENDBRANCH   3   4
ENDBRANCH   2   3
BRANCH   2  14
ATOM     14  C   UNL     1     -10.729   0.351 -32.675  1.00  0.00     0.345 C 
ATOM     15  O   UNL     1     -11.590  -0.509 -32.799  1.00  0.00    -0.248 OA
BRANCH  14  16
ATOM     16  O   UNL     1     -10.973   1.662 -32.927  1.00  0.00    -0.478 OA
ATOM     17  H   UNL     1     -11.861   1.906 -32.589  1.00  0.00     0.296 HD
ENDBRANCH  14  16
ENDBRANCH   2  14
ENDBRANCH   1   2
BRANCH   1  18
ATOM     18  C   UNL     1      -8.931  -2.024 -31.209  1.00  0.00     0.331 C 
ATOM     19  O   UNL     1      -9.587  -3.002 -30.900  1.00  0.00    -0.247 OA
BRANCH  18  20
ATOM     20  C   UNL     1      -7.906  -1.377 -30.367  1.00  0.00     0.094 C 
ATOM     21  C   UNL     1      -6.655  -1.863 -30.354  1.00  0.00     0.016 C 
BRANCH  21  22
ATOM     22  C   UNL     1      -5.564  -1.285 -29.557  1.00  0.00    -0.021 A 
ATOM     23  C   UNL     1      -5.890  -0.503 -28.437  1.00  0.00     0.058 A 
ATOM     24  C   UNL     1      -4.214  -1.449 -29.911  1.00  0.00     0.012 A 
ATOM     25  C   UNL     1      -4.875   0.072 -27.680  1.00  0.00     0.157 A 
ATOM     26  C   UNL     1      -3.200  -0.868 -29.143  1.00  0.00     0.051 A 
ATOM     27  C   UNL     1      -3.541  -0.115 -28.031  1.00  0.00     0.157 A 
BRANCH  25  28
ATOM     28  O   UNL     1      -5.139   0.836 -26.576  1.00  0.00    -0.504 OA
ATOM     29  H   UNL     1      -5.080   0.267 -25.790  1.00  0.00     0.293 HD
ENDBRANCH  25  28
BRANCH  27  30
ATOM     30  O   UNL     1      -2.551   0.454 -27.282  1.00  0.00    -0.504 OA
ATOM     31  H   UNL     1      -1.993  -0.298 -27.001  1.00  0.00     0.293 HD
ENDBRANCH  27  30
ENDBRANCH  21  22
ENDBRANCH  18  20
ENDBRANCH   1  18
TORSDOF 12
ENDMDL
MODEL 2
REMARK VINA RESULT:      -7.9      1.746      3.591
REMARK SMILES O=C(C=Cc1ccc(O)c(O)c1)O[C@@H](Cc1ccc(O)c(O)c1)C(=O)O
REMARK SMILES IDX 13 1 14 2 15 3 16 4 17 5 18 6 19 7 23 8 21 9 20 10 22 12
REMARK SMILES IDX 24 14 25 15 26 16 2 18 1 19 3 20 4 21 5 22 12 23 6 24 10 25
REMARK SMILES IDX 7 26 8 27 11 28 9 30
REMARK H PARENT 20 11 22 13 26 17 11 29 9 31
ROOT
ATOM      1  O   UNL     1      -8.664   1.544 -31.971  1.00  0.00    -0.447 OA
ENDROOT
BRANCH   1   2
ATOM      2  C   UNL     1      -9.455   0.335 -31.928  1.00  0.00     0.290 C 
BRANCH   2   3
ATOM      3  C   UNL     1      -9.796  -0.078 -30.488  1.00  0.00     0.093 C 
BRANCH   3   4
ATOM      4  C   UNL     1      -8.640  -0.718 -29.748  1.00  0.00    -0.040 A 
ATOM      5  C   UNL     1      -8.147  -1.973 -30.145  1.00  0.00     0.008 A 
ATOM      6  C   UNL     1      -7.103  -2.587 -29.446  1.00  0.00     0.050 A 
ATOM      7  C   UNL     1      -6.554  -1.942 -28.345  1.00  0.00     0.157 A 
ATOM      8  C   UNL     1      -8.066  -0.079 -28.640  1.00  0.00     0.054 A 
ATOM      9  C   UNL     1      -7.036  -0.698 -27.947  1.00  0.00     0.157 A 
BRANCH   7  10
ATOM     10  O   UNL     1      -5.537  -2.492 -27.617  1.00  0.00    -0.504 OA
ATOM     11  H   UNL     1      -5.412  -3.409 -27.917  1.00  0.00     0.293 HD
ENDBRANCH   7  10
BRANCH   9  12
ATOM     12  O   UNL     1      -6.497  -0.073 -26.860  1.00  0.00    -0.504 OA
ATOM     13  H   UNL     1      -7.174  -0.175 -26.161  1.00  0.00     0.293 HD
ENDBRANCH   9  12
ENDBRANCH   3   4
ENDBRANCH   2   3
BRANCH   2  14
ATOM     14  C   UNL     1     -10.732   0.552 -32.736  1.00  0.00     0.345 C 
ATOM     15  O   UNL     1     -11.482  -0.344 -33.095  1.00  0.00    -0.248 OA
BRANCH  14  16
ATOM     16  O   UNL     1     -10.975   1.857 -33.017  1.00  0.00    -0.478 OA
ATOM     17  H   UNL     1     -10.633   2.074 -33.911  1.00  0.00     0.296 HD
ENDBRANCH  14  16
ENDBRANCH   2  14
ENDBRANCH   1   2
BRANCH   1  18
ATOM     18  C   UNL     1      -7.462   1.412 -32.588  1.00  0.00     0.331 C 
ATOM     19  O   UNL     1      -7.280   1.179 -33.769  1.00  0.00    -0.247 OA
BRANCH  18  20
ATOM     20  C   UNL     1      -6.404   1.586 -31.574  1.00  0.00     0.094 C 
ATOM     21  C   UNL     1      -5.574   0.567 -31.300  1.00  0.00     0.016 C 
BRANCH  21  22
ATOM     22  C   UNL     1      -4.487   0.643 -30.316  1.00  0.00    -0.021 A 
ATOM     23  C   UNL     1      -4.329   1.827 -29.576  1.00  0.00     0.058 A 
ATOM     24  C   UNL     1      -3.572  -0.408 -30.131  1.00  0.00     0.012 A 
ATOM     25  C   UNL     1      -3.293   1.930 -28.654  1.00  0.00     0.157 A 
ATOM     26  C   UNL     1      -2.534  -0.295 -29.201  1.00  0.00     0.051 A 
ATOM     27  C   UNL     1      -2.407   0.873 -28.468  1.00  0.00     0.157 A 
BRANCH  25  28
ATOM     28  O   UNL     1      -3.102   3.058 -27.904  1.00  0.00    -0.504 OA
ATOM     29  H   UNL     1      -2.435   3.611 -28.347  1.00  0.00     0.293 HD
ENDBRANCH  25  28
BRANCH  27  30
ATOM     30  O   UNL     1      -1.392   0.984 -27.561  1.00  0.00    -0.504 OA
ATOM     31  H   UNL     1      -0.578   0.847 -28.086  1.00  0.00     0.293 HD
ENDBRANCH  27  30
ENDBRANCH  21  22
ENDBRANCH  18  20
ENDBRANCH   1  18
TORSDOF 12
ENDMDL
MODEL 3
REMARK VINA RESULT:      -7.8      1.813      6.927
REMARK SMILES O=C(C=Cc1ccc(O)c(O)c1)O[C@@H](Cc1ccc(O)c(O)c1)C(=O)O
REMARK SMILES IDX 13 1 14 2 15 3 16 4 17 5 18 6 19 7 23 8 21 9 20 10 22 12
REMARK SMILES IDX 24 14 25 15 26 16 2 18 1 19 3 20 4 21 5 22 12 23 6 24 10 25
REMARK SMILES IDX 7 26 8 27 11 28 9 30
REMARK H PARENT 20 11 22 13 26 17 11 29 9 31
ROOT
ATOM      1  O   UNL     1      -4.433   1.156 -29.606  1.00  0.00    -0.447 OA
ENDROOT
BRANCH   1   2
ATOM      2  C   UNL     1      -3.028   0.867 -29.780  1.00  0.00     0.290 C 
BRANCH   2   3
ATOM      3  C   UNL     1      -2.419   0.201 -28.537  1.00  0.00     0.093 C 
BRANCH   3   4
ATOM      4  C   UNL     1      -3.450  -0.353 -27.576  1.00  0.00    -0.040 A 
ATOM      5  C   UNL     1      -4.118  -1.557 -27.864  1.00  0.00     0.008 A 
ATOM      6  C   UNL     1      -5.097  -2.058 -27.000  1.00  0.00     0.050 A 
ATOM      7  C   UNL     1      -5.409  -1.350 -25.847  1.00  0.00     0.157 A 
ATOM      8  C   UNL     1      -3.774   0.342 -26.403  1.00  0.00     0.054 A 
ATOM      9  C   UNL     1      -4.751  -0.158 -25.555  1.00  0.00     0.157 A 
BRANCH   7  10
ATOM     10  O   UNL     1      -6.361  -1.783 -24.967  1.00  0.00    -0.504 OA
ATOM     11  H   UNL     1      -5.919  -1.996 -24.127  1.00  0.00     0.293 HD
ENDBRANCH   7  10
BRANCH   9  12
ATOM     12  O   UNL     1      -5.068   0.537 -24.424  1.00  0.00    -0.504 OA
ATOM     13  H   UNL     1      -6.027   0.384 -24.305  1.00  0.00     0.293 HD
ENDBRANCH   9  12
ENDBRANCH   3   4
ENDBRANCH   2   3
BRANCH   2  14
ATOM     14  C   UNL     1      -2.857  -0.031 -31.002  1.00  0.00     0.345 C 
ATOM     15  O   UNL     1      -3.719  -0.787 -31.428  1.00  0.00    -0.248 OA
BRANCH  14  16
ATOM     16  O   UNL     1      -1.644   0.093 -31.596  1.00  0.00    -0.478 OA
ATOM     17  H   UNL     1      -1.721   0.655 -32.397  1.00  0.00     0.296 HD
ENDBRANCH  14  16
ENDBRANCH   2  14
ENDBRANCH   1   2
BRANCH   1  18
ATOM     18  C   UNL     1      -4.867   2.269 -30.251  1.00  0.00     0.331 C 
ATOM     19  O   UNL     1      -4.323   3.359 -30.251  1.00  0.00    -0.247 OA
BRANCH  18  20
ATOM     20  C   UNL     1      -6.124   1.937 -30.947  1.00  0.00     0.094 C 
ATOM     21  C   UNL     1      -6.852   0.886 -30.537  1.00  0.00     0.016 C 
BRANCH  21  22
ATOM     22  C   UNL     1      -8.120   0.479 -31.159  1.00  0.00    -0.021 A 
ATOM     23  C   UNL     1      -8.903   1.458 -31.791  1.00  0.00     0.058 A 
ATOM     24  C   UNL     1      -8.593  -0.843 -31.093  1.00  0.00     0.012 A 
ATOM     25  C   UNL     1     -10.118   1.101 -32.367  1.00  0.00     0.157 A 
ATOM     26  C   UNL     1      -9.815  -1.192 -31.675  1.00  0.00     0.051 A 
ATOM     27  C   UNL     1     -10.565  -0.216 -32.311  1.00  0.00     0.157 A 
BRANCH  25  28
ATOM     28  O   UNL     1     -10.915   2.014 -33.002  1.00  0.00    -0.504 OA
ATOM     29  H   UNL     1     -11.843   1.793 -32.813  1.00  0.00     0.293 HD
ENDBRANCH  25  28
BRANCH  27  30
ATOM     30  O   UNL     1     -11.759  -0.557 -32.879  1.00  0.00    -0.504 OA
ATOM     31  H   UNL     1     -11.562  -1.360 -33.401  1.00  0.00     0.293 HD
ENDBRANCH  27  30
ENDBRANCH  21  22
ENDBRANCH  18  20
ENDBRANCH   1  18
TORSDOF 12
ENDMDL
MODEL 4
REMARK VINA RESULT:      -7.7      2.643      6.377
REMARK SMILES O=C(C=Cc1ccc(O)c(O)c1)O[C@@H](Cc1ccc(O)c(O)c1)C(=O)O
REMARK SMILES IDX 13 1 14 2 15 3 16 4 17 5 18 6 19 7 23 8 21 9 20 10 22 12
REMARK SMILES IDX 24 14 25 15 26 16 2 18 1 19 3 20 4 21 5 22 12 23 6 24 10 25
REMARK SMILES IDX 7 26 8 27 11 28 9 30
REMARK H PARENT 20 11 22 13 26 17 11 29 9 31
ROOT
ATOM      1  O   UNL     1      -6.105  -0.162 -29.722  1.00  0.00    -0.447 OA
ENDROOT
BRANCH   1   2
ATOM      2  C   UNL     1      -5.479   0.662 -30.732  1.00  0.00     0.290 C 
BRANCH   2   3
ATOM      3  C   UNL     1      -6.424   1.758 -31.247  1.00  0.00     0.093 C 
BRANCH   3   4
ATOM      4  C   UNL     1      -7.727   1.225 -31.806  1.00  0.00    -0.040 A 
ATOM      5  C   UNL     1      -7.873   1.003 -33.187  1.00  0.00     0.008 A 
ATOM      6  C   UNL     1      -9.084   0.545 -33.715  1.00  0.00     0.050 A 
ATOM      7  C   UNL     1     -10.151   0.311 -32.859  1.00  0.00     0.157 A 
ATOM      8  C   UNL     1      -8.814   0.974 -30.957  1.00  0.00     0.054 A 
ATOM      9  C   UNL     1     -10.013   0.526 -31.490  1.00  0.00     0.157 A 
BRANCH   7  10
ATOM     10  O   UNL     1     -11.361  -0.131 -33.314  1.00  0.00    -0.504 OA
ATOM     11  H   UNL     1     -11.576   0.361 -34.125  1.00  0.00     0.293 HD
ENDBRANCH   7  10
BRANCH   9  12
ATOM     12  O   UNL     1     -11.069   0.301 -30.654  1.00  0.00    -0.504 OA
ATOM     13  H   UNL     1     -11.654   1.074 -30.788  1.00  0.00     0.293 HD
ENDBRANCH   9  12
ENDBRANCH   3   4
ENDBRANCH   2   3
BRANCH   2  14
ATOM     14  C   UNL     1      -4.213   1.282 -30.146  1.00  0.00     0.345 C 
ATOM     15  O   UNL     1      -4.204   2.221 -29.363  1.00  0.00    -0.248 OA
BRANCH  14  16
ATOM     16  O   UNL     1      -3.074   0.681 -30.569  1.00  0.00    -0.478 OA
ATOM     17  H   UNL     1      -2.349   0.853 -29.931  1.00  0.00     0.296 HD
ENDBRANCH  14  16
ENDBRANCH   2  14
ENDBRANCH   1   2
BRANCH   1  18
ATOM     18  C   UNL     1      -5.834  -1.488 -29.825  1.00  0.00     0.331 C 
ATOM     19  O   UNL     1      -4.857  -1.984 -30.355  1.00  0.00    -0.247 OA
BRANCH  18  20
ATOM     20  C   UNL     1      -6.940  -2.233 -29.194  1.00  0.00     0.094 C 
ATOM     21  C   UNL     1      -7.638  -3.122 -29.918  1.00  0.00     0.016 C 
BRANCH  21  22
ATOM     22  C   UNL     1      -8.750  -3.919 -29.379  1.00  0.00    -0.021 A 
ATOM     23  C   UNL     1      -9.521  -4.685 -30.268  1.00  0.00     0.058 A 
ATOM     24  C   UNL     1      -9.094  -3.894 -28.016  1.00  0.00     0.012 A 
ATOM     25  C   UNL     1     -10.592  -5.429 -29.784  1.00  0.00     0.157 A 
ATOM     26  C   UNL     1     -10.171  -4.646 -27.540  1.00  0.00     0.051 A 
ATOM     27  C   UNL     1     -10.909  -5.411 -28.429  1.00  0.00     0.157 A 
BRANCH  25  28
ATOM     28  O   UNL     1     -11.369  -6.198 -30.607  1.00  0.00    -0.504 OA
ATOM     29  H   UNL     1     -12.296  -5.923 -30.497  1.00  0.00     0.293 HD
ENDBRANCH  25  28
BRANCH  27  30
ATOM     30  O   UNL     1     -11.962  -6.144 -27.964  1.00  0.00    -0.504 OA
ATOM     31  H   UNL     1     -11.620  -6.582 -27.160  1.00  0.00     0.293 HD
ENDBRANCH  27  30
ENDBRANCH  21  22
ENDBRANCH  18  20
ENDBRANCH   1  18
TORSDOF 12
ENDMDL
MODEL 5
REMARK VINA RESULT:      -7.6      1.429      2.044
REMARK SMILES O=C(C=Cc1ccc(O)c(O)c1)O[C@@H](Cc1ccc(O)c(O)c1)C(=O)O
REMARK SMILES IDX 13 1 14 2 15 3 16 4 17 5 18 6 19 7 23 8 21 9 20 10 22 12
REMARK SMILES IDX 24 14 25 15 26 16 2 18 1 19 3 20 4 21 5 22 12 23 6 24 10 25
REMARK SMILES IDX 7 26 8 27 11 28 9 30
REMARK H PARENT 20 11 22 13 26 17 11 29 9 31
ROOT
ATOM      1  O   UNL     1      -8.433  -1.125 -31.748  1.00  0.00    -0.447 OA
ENDROOT
BRANCH   1   2
ATOM      2  C   UNL     1      -8.859   0.167 -31.258  1.00  0.00     0.290 C 
BRANCH   2   3
ATOM      3  C   UNL     1      -8.060   1.315 -31.894  1.00  0.00     0.093 C 
BRANCH   3   4
ATOM      4  C   UNL     1      -7.062   1.956 -30.954  1.00  0.00    -0.040 A 
ATOM      5  C   UNL     1      -5.768   2.281 -31.400  1.00  0.00     0.008 A 
ATOM      6  C   UNL     1      -4.829   2.841 -30.529  1.00  0.00     0.050 A 
ATOM      7  C   UNL     1      -5.186   3.074 -29.207  1.00  0.00     0.157 A 
ATOM      8  C   UNL     1      -7.405   2.207 -29.618  1.00  0.00     0.054 A 
ATOM      9  C   UNL     1      -6.465   2.756 -28.758  1.00  0.00     0.157 A 
BRANCH   7  10
ATOM     10  O   UNL     1      -4.311   3.612 -28.305  1.00  0.00    -0.504 OA
ATOM     11  H   UNL     1      -4.172   4.546 -28.540  1.00  0.00     0.293 HD
ENDBRANCH   7  10
BRANCH   9  12
ATOM     12  O   UNL     1      -6.807   2.980 -27.456  1.00  0.00    -0.504 OA
ATOM     13  H   UNL     1      -6.598   3.925 -27.309  1.00  0.00     0.293 HD
ENDBRANCH   9  12
ENDBRANCH   3   4
ENDBRANCH   2   3
BRANCH   2  14
ATOM     14  C   UNL     1     -10.349   0.333 -31.542  1.00  0.00     0.345 C 
ATOM     15  O   UNL     1     -10.814   0.634 -32.632  1.00  0.00    -0.248 OA
BRANCH  14  16
ATOM     16  O   UNL     1     -11.133   0.102 -30.459  1.00  0.00    -0.478 OA
ATOM     17  H   UNL     1     -10.936  -0.785 -30.088  1.00  0.00     0.296 HD
ENDBRANCH  14  16
ENDBRANCH   2  14
ENDBRANCH   1   2
BRANCH   1  18
ATOM     18  C   UNL     1      -8.038  -1.994 -30.783  1.00  0.00     0.331 C 
ATOM     19  O   UNL     1      -8.478  -3.115 -30.600  1.00  0.00    -0.247 OA
BRANCH  18  20
ATOM     20  C   UNL     1      -6.989  -1.342 -29.977  1.00  0.00     0.094 C 
ATOM     21  C   UNL     1      -5.708  -1.419 -30.369  1.00  0.00     0.016 C 
BRANCH  21  22
ATOM     22  C   UNL     1      -4.593  -0.798 -29.640  1.00  0.00    -0.021 A 
ATOM     23  C   UNL     1      -4.785  -0.436 -28.297  1.00  0.00     0.058 A 
ATOM     24  C   UNL     1      -3.365  -0.508 -30.260  1.00  0.00     0.012 A 
ATOM     25  C   UNL     1      -3.752   0.174 -27.593  1.00  0.00     0.157 A 
ATOM     26  C   UNL     1      -2.332   0.104 -29.544  1.00  0.00     0.051 A 
ATOM     27  C   UNL     1      -2.535   0.436 -28.214  1.00  0.00     0.157 A 
BRANCH  25  28
ATOM     28  O   UNL     1      -3.886   0.537 -26.281  1.00  0.00    -0.504 OA
ATOM     29  H   UNL     1      -4.753   0.229 -25.965  1.00  0.00     0.293 HD
ENDBRANCH  25  28
BRANCH  27  30
ATOM     30  O   UNL     1      -1.526   1.035 -27.516  1.00  0.00    -0.504 OA
ATOM     31  H   UNL     1      -0.718   0.832 -28.028  1.00  0.00     0.293 HD
ENDBRANCH  27  30
ENDBRANCH  21  22
ENDBRANCH  18  20
ENDBRANCH   1  18
TORSDOF 12
ENDMDL
MODEL 6
REMARK VINA RESULT:      -7.5      1.897      4.391
REMARK SMILES O=C(C=Cc1ccc(O)c(O)c1)O[C@@H](Cc1ccc(O)c(O)c1)C(=O)O
REMARK SMILES IDX 13 1 14 2 15 3 16 4 17 5 18 6 19 7 23 8 21 9 20 10 22 12
REMARK SMILES IDX 24 14 25 15 26 16 2 18 1 19 3 20 4 21 5 22 12 23 6 24 10 25
REMARK SMILES IDX 7 26 8 27 11 28 9 30
REMARK H PARENT 20 11 22 13 26 17 11 29 9 31
ROOT
ATOM      1  O   UNL     1      -8.450   1.471 -32.115  1.00  0.00    -0.447 OA
ENDROOT
BRANCH   1   2
ATOM      2  C   UNL     1      -9.394   0.400 -31.885  1.00  0.00     0.290 C 
BRANCH   2   3
ATOM      3  C   UNL     1      -9.754   0.260 -30.397  1.00  0.00     0.093 C 
BRANCH   3   4
ATOM      4  C   UNL     1      -9.495  -1.122 -29.836  1.00  0.00    -0.040 A 
ATOM      5  C   UNL     1      -9.738  -1.398 -28.479  1.00  0.00     0.008 A 
ATOM      6  C   UNL     1      -9.469  -2.661 -27.945  1.00  0.00     0.050 A 
ATOM      7  C   UNL     1      -8.952  -3.650 -28.771  1.00  0.00     0.157 A 
ATOM      8  C   UNL     1      -8.981  -2.137 -30.656  1.00  0.00     0.054 A 
ATOM      9  C   UNL     1      -8.710  -3.385 -30.116  1.00  0.00     0.157 A 
BRANCH   7  10
ATOM     10  O   UNL     1      -8.662  -4.903 -28.307  1.00  0.00    -0.504 OA
ATOM     11  H   UNL     1      -7.844  -4.848 -27.784  1.00  0.00     0.293 HD
ENDBRANCH   7  10
BRANCH   9  12
ATOM     12  O   UNL     1      -8.194  -4.359 -30.922  1.00  0.00    -0.504 OA
ATOM     13  H   UNL     1      -7.699  -4.943 -30.312  1.00  0.00     0.293 HD
ENDBRANCH   9  12
ENDBRANCH   3   4
ENDBRANCH   2   3
BRANCH   2  14
ATOM     14  C   UNL     1     -10.649   0.663 -32.713  1.00  0.00     0.345 C 
ATOM     15  O   UNL     1     -11.415  -0.208 -33.099  1.00  0.00    -0.248 OA
BRANCH  14  16
ATOM     16  O   UNL     1     -10.852   1.977 -32.981  1.00  0.00    -0.478 OA
ATOM     17  H   UNL     1     -10.027   2.482 -32.815  1.00  0.00     0.296 HD
ENDBRANCH  14  16
ENDBRANCH   2  14
ENDBRANCH   1   2
BRANCH   1  18
ATOM     18  C   UNL     1      -7.445   1.164 -32.973  1.00  0.00     0.331 C 
ATOM     19  O   UNL     1      -7.550   0.991 -34.174  1.00  0.00    -0.247 OA
BRANCH  18  20
ATOM     20  C   UNL     1      -6.193   1.062 -32.198  1.00  0.00     0.094 C 
ATOM     21  C   UNL     1      -6.164   1.491 -30.927  1.00  0.00     0.016 C 
BRANCH  21  22
ATOM     22  C   UNL     1      -4.971   1.425 -30.072  1.00  0.00    -0.021 A 
ATOM     23  C   UNL     1      -4.406   0.169 -29.800  1.00  0.00     0.058 A 
ATOM     24  C   UNL     1      -4.414   2.571 -29.478  1.00  0.00     0.012 A 
ATOM     25  C   UNL     1      -3.289   0.079 -28.975  1.00  0.00     0.157 A 
ATOM     26  C   UNL     1      -3.291   2.472 -28.651  1.00  0.00     0.051 A 
ATOM     27  C   UNL     1      -2.737   1.225 -28.410  1.00  0.00     0.157 A 
BRANCH  25  28
ATOM     28  O   UNL     1      -2.697  -1.119 -28.686  1.00  0.00    -0.504 OA
ATOM     29  H   UNL     1      -3.397  -1.777 -28.530  1.00  0.00     0.293 HD
ENDBRANCH  25  28
BRANCH  27  30
ATOM     30  O   UNL     1      -1.641   1.127 -27.601  1.00  0.00    -0.504 OA
ATOM     31  H   UNL     1      -0.972   1.701 -28.024  1.00  0.00     0.293 HD
ENDBRANCH  27  30
ENDBRANCH  21  22
ENDBRANCH  18  20
ENDBRANCH   1  18
TORSDOF 12
ENDMDL
MODEL 7
REMARK VINA RESULT:      -7.5      2.047      4.612
REMARK SMILES O=C(C=Cc1ccc(O)c(O)c1)O[C@@H](Cc1ccc(O)c(O)c1)C(=O)O
REMARK SMILES IDX 13 1 14 2 15 3 16 4 17 5 18 6 19 7 23 8 21 9 20 10 22 12
REMARK SMILES IDX 24 14 25 15 26 16 2 18 1 19 3 20 4 21 5 22 12 23 6 24 10 25
REMARK SMILES IDX 7 26 8 27 11 28 9 30
REMARK H PARENT 20 11 22 13 26 17 11 29 9 31
ROOT
ATOM      1  O   UNL     1      -8.534   1.466 -32.113  1.00  0.00    -0.447 OA
ENDROOT
BRANCH   1   2
ATOM      2  C   UNL     1      -9.455   0.360 -31.981  1.00  0.00     0.290 C 
BRANCH   2   3
ATOM      3  C   UNL     1      -9.905   0.157 -30.526  1.00  0.00     0.093 C 
BRANCH   3   4
ATOM      4  C   UNL     1      -9.523  -1.192 -29.954  1.00  0.00    -0.040 A 
ATOM      5  C   UNL     1      -9.085  -2.227 -30.799  1.00  0.00     0.008 A 
ATOM      6  C   UNL     1      -8.764  -3.487 -30.284  1.00  0.00     0.050 A 
ATOM      7  C   UNL     1      -8.885  -3.711 -28.919  1.00  0.00     0.157 A 
ATOM      8  C   UNL     1      -9.631  -1.436 -28.578  1.00  0.00     0.054 A 
ATOM      9  C   UNL     1      -9.317  -2.691 -28.075  1.00  0.00     0.157 A 
BRANCH   7  10
ATOM     10  O   UNL     1      -8.594  -4.921 -28.355  1.00  0.00    -0.504 OA
ATOM     11  H   UNL     1      -9.334  -5.525 -28.537  1.00  0.00     0.293 HD
ENDBRANCH   7  10
BRANCH   9  12
ATOM     12  O   UNL     1      -9.442  -2.919 -26.735  1.00  0.00    -0.504 OA
ATOM     13  H   UNL     1      -9.076  -3.818 -26.607  1.00  0.00     0.293 HD
ENDBRANCH   9  12
ENDBRANCH   3   4
ENDBRANCH   2   3
BRANCH   2  14
ATOM     14  C   UNL     1     -10.662   0.614 -32.881  1.00  0.00     0.345 C 
ATOM     15  O   UNL     1     -11.319  -0.266 -33.417  1.00  0.00    -0.248 OA
BRANCH  14  16
ATOM     16  O   UNL     1     -10.956   1.930 -33.027  1.00  0.00    -0.478 OA
ATOM     17  H   UNL     1     -10.950   2.169 -33.979  1.00  0.00     0.296 HD
ENDBRANCH  14  16
ENDBRANCH   2  14
ENDBRANCH   1   2
BRANCH   1  18
ATOM     18  C   UNL     1      -7.459   1.216 -32.903  1.00  0.00     0.331 C 
ATOM     19  O   UNL     1      -7.487   0.906 -34.080  1.00  0.00    -0.247 OA
BRANCH  18  20
ATOM     20  C   UNL     1      -6.241   1.371 -32.085  1.00  0.00     0.094 C 
ATOM     21  C   UNL     1      -6.128   0.698 -30.929  1.00  0.00     0.016 C 
BRANCH  21  22
ATOM     22  C   UNL     1      -4.954   0.780 -30.050  1.00  0.00    -0.021 A 
ATOM     23  C   UNL     1      -3.693   0.461 -30.579  1.00  0.00     0.058 A 
ATOM     24  C   UNL     1      -5.063   1.114 -28.689  1.00  0.00     0.012 A 
ATOM     25  C   UNL     1      -2.570   0.509 -29.759  1.00  0.00     0.157 A 
ATOM     26  C   UNL     1      -3.929   1.161 -27.873  1.00  0.00     0.051 A 
ATOM     27  C   UNL     1      -2.691   0.861 -28.418  1.00  0.00     0.157 A 
BRANCH  25  28
ATOM     28  O   UNL     1      -1.319   0.215 -30.227  1.00  0.00    -0.504 OA
ATOM     29  H   UNL     1      -1.412  -0.335 -31.024  1.00  0.00     0.293 HD
ENDBRANCH  25  28
BRANCH  27  30
ATOM     30  O   UNL     1      -1.583   0.905 -27.621  1.00  0.00    -0.504 OA
ATOM     31  H   UNL     1      -0.991   0.218 -27.986  1.00  0.00     0.293 HD
ENDBRANCH  27  30
ENDBRANCH  21  22
ENDBRANCH  18  20
ENDBRANCH   1  18
TORSDOF 12
ENDMDL
MODEL 8
REMARK VINA RESULT:      -7.4      2.337      4.996
REMARK SMILES O=C(C=Cc1ccc(O)c(O)c1)O[C@@H](Cc1ccc(O)c(O)c1)C(=O)O
REMARK SMILES IDX 13 1 14 2 15 3 16 4 17 5 18 6 19 7 23 8 21 9 20 10 22 12
REMARK SMILES IDX 24 14 25 15 26 16 2 18 1 19 3 20 4 21 5 22 12 23 6 24 10 25
REMARK SMILES IDX 7 26 8 27 11 28 9 30
REMARK H PARENT 20 11 22 13 26 17 11 29 9 31
ROOT
ATOM      1  O   UNL     1      -7.012   0.376 -30.362  1.00  0.00    -0.447 OA
ENDROOT
BRANCH   1   2
ATOM      2  C   UNL     1      -6.744  -0.950 -30.872  1.00  0.00     0.290 C 
BRANCH   2   3
ATOM      3  C   UNL     1      -5.855  -1.764 -29.919  1.00  0.00     0.093 C 
BRANCH   3   4
ATOM      4  C   UNL     1      -4.702  -0.973 -29.338  1.00  0.00    -0.040 A 
ATOM      5  C   UNL     1      -3.551  -0.722 -30.107  1.00  0.00     0.008 A 
ATOM      6  C   UNL     1      -2.467  -0.023 -29.567  1.00  0.00     0.050 A 
ATOM      7  C   UNL     1      -2.534   0.423 -28.253  1.00  0.00     0.157 A 
ATOM      8  C   UNL     1      -4.754  -0.508 -28.017  1.00  0.00     0.054 A 
ATOM      9  C   UNL     1      -3.671   0.179 -27.487  1.00  0.00     0.157 A 
BRANCH   7  10
ATOM     10  O   UNL     1      -1.506   1.105 -27.667  1.00  0.00    -0.504 OA
ATOM     11  H   UNL     1      -1.229   0.611 -26.876  1.00  0.00     0.293 HD
ENDBRANCH   7  10
BRANCH   9  12
ATOM     12  O   UNL     1      -3.728   0.612 -26.194  1.00  0.00    -0.504 OA
ATOM     13  H   UNL     1      -3.781   1.587 -26.267  1.00  0.00     0.293 HD
ENDBRANCH   9  12
ENDBRANCH   3   4
ENDBRANCH   2   3
BRANCH   2  14
ATOM     14  C   UNL     1      -8.072  -1.666 -31.103  1.00  0.00     0.345 C 
ATOM     15  O   UNL     1      -8.630  -2.369 -30.273  1.00  0.00    -0.248 OA
BRANCH  14  16
ATOM     16  O   UNL     1      -8.597  -1.442 -32.333  1.00  0.00    -0.478 OA
ATOM     17  H   UNL     1      -7.962  -0.929 -32.878  1.00  0.00     0.296 HD
ENDBRANCH  14  16
ENDBRANCH   2  14
ENDBRANCH   1   2
BRANCH   1  18
ATOM     18  C   UNL     1      -7.002   1.356 -31.300  1.00  0.00     0.331 C 
ATOM     19  O   UNL     1      -7.817   1.507 -32.193  1.00  0.00    -0.247 OA
BRANCH  18  20
ATOM     20  C   UNL     1      -5.820   2.207 -31.065  1.00  0.00     0.094 C 
ATOM     21  C   UNL     1      -5.780   3.001 -29.983  1.00  0.00     0.016 C 
BRANCH  21  22
ATOM     22  C   UNL     1      -4.647   3.878 -29.657  1.00  0.00    -0.021 A 
ATOM     23  C   UNL     1      -4.268   4.861 -30.585  1.00  0.00     0.058 A 
ATOM     24  C   UNL     1      -3.903   3.727 -28.474  1.00  0.00     0.012 A 
ATOM     25  C   UNL     1      -3.184   5.689 -30.308  1.00  0.00     0.157 A 
ATOM     26  C   UNL     1      -2.816   4.564 -28.204  1.00  0.00     0.051 A 
ATOM     27  C   UNL     1      -2.469   5.540 -29.123  1.00  0.00     0.157 A 
BRANCH  25  28
ATOM     28  O   UNL     1      -2.780   6.667 -31.174  1.00  0.00    -0.504 OA
ATOM     29  H   UNL     1      -3.221   6.519 -32.029  1.00  0.00     0.293 HD
ENDBRANCH  25  28
BRANCH  27  30
ATOM     30  O   UNL     1      -1.407   6.356 -28.860  1.00  0.00    -0.504 OA
ATOM     31  H   UNL     1      -0.622   5.822 -29.095  1.00  0.00     0.293 HD
ENDBRANCH  27  30
ENDBRANCH  21  22
ENDBRANCH  18  20
ENDBRANCH   1  18
TORSDOF 12
ENDMDL
MODEL 9
REMARK VINA RESULT:      -7.4      2.431      6.101
REMARK SMILES O=C(C=Cc1ccc(O)c(O)c1)O[C@@H](Cc1ccc(O)c(O)c1)C(=O)O
REMARK SMILES IDX 13 1 14 2 15 3 16 4 17 5 18 6 19 7 23 8 21 9 20 10 22 12
REMARK SMILES IDX 24 14 25 15 26 16 2 18 1 19 3 20 4 21 5 22 12 23 6 24 10 25
REMARK SMILES IDX 7 26 8 27 11 28 9 30
REMARK H PARENT 20 11 22 13 26 17 11 29 9 31
ROOT
ATOM      1  O   UNL     1      -5.742   0.287 -29.379  1.00  0.00    -0.447 OA
ENDROOT
BRANCH   1   2
ATOM      2  C   UNL     1      -5.539  -0.036 -30.774  1.00  0.00     0.290 C 
BRANCH   2   3
ATOM      3  C   UNL     1      -6.304   0.919 -31.703  1.00  0.00     0.093 C 
BRANCH   3   4
ATOM      4  C   UNL     1      -7.741   0.509 -31.948  1.00  0.00    -0.040 A 
ATOM      5  C   UNL     1      -8.133  -0.835 -31.807  1.00  0.00     0.008 A 
ATOM      6  C   UNL     1      -9.449  -1.228 -32.065  1.00  0.00     0.050 A 
ATOM      7  C   UNL     1     -10.375  -0.275 -32.469  1.00  0.00     0.157 A 
ATOM      8  C   UNL     1      -8.692   1.458 -32.348  1.00  0.00     0.054 A 
ATOM      9  C   UNL     1      -9.994   1.057 -32.610  1.00  0.00     0.157 A 
BRANCH   7  10
ATOM     10  O   UNL     1     -11.674  -0.597 -32.744  1.00  0.00    -0.504 OA
ATOM     11  H   UNL     1     -12.192  -0.481 -31.929  1.00  0.00     0.293 HD
ENDBRANCH   7  10
BRANCH   9  12
ATOM     12  O   UNL     1     -10.906   1.989 -33.015  1.00  0.00    -0.504 OA
ATOM     13  H   UNL     1     -11.732   1.479 -33.146  1.00  0.00     0.293 HD
ENDBRANCH   9  12
ENDBRANCH   3   4
ENDBRANCH   2   3
BRANCH   2  14
ATOM     14  C   UNL     1      -4.044   0.010 -31.078  1.00  0.00     0.345 C 
ATOM     15  O   UNL     1      -3.400  -0.934 -31.513  1.00  0.00    -0.248 OA
BRANCH  14  16
ATOM     16  O   UNL     1      -3.481   1.218 -30.829  1.00  0.00    -0.478 OA
ATOM     17  H   UNL     1      -2.709   1.354 -31.420  1.00  0.00     0.296 HD
ENDBRANCH  14  16
ENDBRANCH   2  14
ENDBRANCH   1   2
BRANCH   1  18
ATOM     18  C   UNL     1      -5.619  -0.765 -28.531  1.00  0.00     0.331 C 
ATOM     19  O   UNL     1      -4.620  -1.074 -27.906  1.00  0.00    -0.247 OA
BRANCH  18  20
ATOM     20  C   UNL     1      -6.906  -1.486 -28.503  1.00  0.00     0.094 C 
ATOM     21  C   UNL     1      -6.967  -2.750 -28.950  1.00  0.00     0.016 C 
BRANCH  21  22
ATOM     22  C   UNL     1      -8.197  -3.554 -28.957  1.00  0.00    -0.021 A 
ATOM     23  C   UNL     1      -9.015  -3.544 -27.816  1.00  0.00     0.058 A 
ATOM     24  C   UNL     1      -8.550  -4.369 -30.047  1.00  0.00     0.012 A 
ATOM     25  C   UNL     1     -10.173  -4.314 -27.791  1.00  0.00     0.157 A 
ATOM     26  C   UNL     1      -9.716  -5.139 -30.013  1.00  0.00     0.051 A 
ATOM     27  C   UNL     1     -10.519  -5.101 -28.885  1.00  0.00     0.157 A 
BRANCH  25  28
ATOM     28  O   UNL     1     -11.006  -4.333 -26.706  1.00  0.00    -0.504 OA
ATOM     29  H   UNL     1     -10.539  -4.761 -25.969  1.00  0.00     0.293 HD
ENDBRANCH  25  28
BRANCH  27  30
ATOM     30  O   UNL     1     -11.658  -5.854 -28.851  1.00  0.00    -0.504 OA
ATOM     31  H   UNL     1     -12.206  -5.439 -28.157  1.00  0.00     0.293 HD
ENDBRANCH  27  30
ENDBRANCH  21  22
ENDBRANCH  18  20
ENDBRANCH   1  18
TORSDOF 12
ENDMDL
MODEL 10
REMARK VINA RESULT:      -7.4      1.429      1.968
REMARK SMILES O=C(C=Cc1ccc(O)c(O)c1)O[C@@H](Cc1ccc(O)c(O)c1)C(=O)O
REMARK SMILES IDX 13 1 14 2 15 3 16 4 17 5 18 6 19 7 23 8 21 9 20 10 22 12
REMARK SMILES IDX 24 14 25 15 26 16 2 18 1 19 3 20 4 21 5 22 12 23 6 24 10 25
REMARK SMILES IDX 7 26 8 27 11 28 9 30
REMARK H PARENT 20 11 22 13 26 17 11 29 9 31
ROOT
ATOM      1  O   UNL     1      -8.773  -0.858 -32.106  1.00  0.00    -0.447 OA
ENDROOT
BRANCH   1   2
ATOM      2  C   UNL     1      -9.173   0.532 -32.113  1.00  0.00     0.290 C 
BRANCH   2   3
ATOM      3  C   UNL     1      -8.041   1.453 -32.594  1.00  0.00     0.093 C 
BRANCH   3   4
ATOM      4  C   UNL     1      -6.918   1.612 -31.591  1.00  0.00    -0.040 A 
ATOM      5  C   UNL     1      -5.679   0.982 -31.801  1.00  0.00     0.008 A 
ATOM      6  C   UNL     1      -4.648   1.095 -30.863  1.00  0.00     0.050 A 
ATOM      7  C   UNL     1      -4.860   1.840 -29.710  1.00  0.00     0.157 A 
ATOM      8  C   UNL     1      -7.109   2.367 -30.425  1.00  0.00     0.054 A 
ATOM      9  C   UNL     1      -6.084   2.468 -29.496  1.00  0.00     0.157 A 
BRANCH   7  10
ATOM     10  O   UNL     1      -3.896   1.983 -28.753  1.00  0.00    -0.504 OA
ATOM     11  H   UNL     1      -3.173   1.364 -28.958  1.00  0.00     0.293 HD
ENDBRANCH   7  10
BRANCH   9  12
ATOM     12  O   UNL     1      -6.290   3.192 -28.357  1.00  0.00    -0.504 OA
ATOM     13  H   UNL     1      -5.546   2.941 -27.771  1.00  0.00     0.293 HD
ENDBRANCH   9  12
ENDBRANCH   3   4
ENDBRANCH   2   3
BRANCH   2  14
ATOM     14  C   UNL     1     -10.401   0.687 -33.005  1.00  0.00     0.345 C 
ATOM     15  O   UNL     1     -10.903  -0.222 -33.651  1.00  0.00    -0.248 OA
BRANCH  14  16
ATOM     16  O   UNL     1     -10.907   1.945 -33.010  1.00  0.00    -0.478 OA
ATOM     17  H   UNL     1     -10.365   2.525 -32.433  1.00  0.00     0.296 HD
ENDBRANCH  14  16
ENDBRANCH   2  14
ENDBRANCH   1   2
BRANCH   1  18
ATOM     18  C   UNL     1      -9.264  -1.583 -31.068  1.00  0.00     0.331 C 
ATOM     19  O   UNL     1     -10.123  -2.443 -31.134  1.00  0.00    -0.247 OA
BRANCH  18  20
ATOM     20  C   UNL     1      -8.586  -1.139 -29.835  1.00  0.00     0.094 C 
ATOM     21  C   UNL     1      -7.312  -1.497 -29.614  1.00  0.00     0.016 C 
BRANCH  21  22
ATOM     22  C   UNL     1      -6.549  -1.100 -28.422  1.00  0.00    -0.021 A 
ATOM     23  C   UNL     1      -7.112  -0.160 -27.545  1.00  0.00     0.058 A 
ATOM     24  C   UNL     1      -5.257  -1.592 -28.165  1.00  0.00     0.012 A 
ATOM     25  C   UNL     1      -6.398   0.248 -26.422  1.00  0.00     0.157 A 
ATOM     26  C   UNL     1      -4.548  -1.177 -27.034  1.00  0.00     0.051 A 
ATOM     27  C   UNL     1      -5.129  -0.262 -26.170  1.00  0.00     0.157 A 
BRANCH  25  28
ATOM     28  O   UNL     1      -6.906   1.155 -25.533  1.00  0.00    -0.504 OA
ATOM     29  H   UNL     1      -6.289   1.905 -25.476  1.00  0.00     0.293 HD
ENDBRANCH  25  28
BRANCH  27  30
ATOM     30  O   UNL     1      -4.436   0.145 -25.066  1.00  0.00    -0.504 OA
ATOM     31  H   UNL     1      -5.122   0.479 -24.455  1.00  0.00     0.293 HD
ENDBRANCH  27  30
ENDBRANCH  21  22
ENDBRANCH  18  20
ENDBRANCH   1  18
TORSDOF 12
ENDMDL
