MODEL 1
REMARK VINA RESULT:      -9.0      0.000      0.000
REMARK SMILES O=C(/C=C/c1ccc(O)c(O)c1)O[C@@H]1[C@H](O)C[C@@](O)(C(=O)O)C[C@H]1OC(=O)/C=C/c1ccc(O)c(O)c1
REMARK SMILES IDX 17 1 15 2 14 3 24 4 23 5 18 6 16 7 19 9 20 11 21 12 22 13
REMARK SMILES IDX 13 15 2 16 1 17 3 18 4 19 5 20 12 21 6 22 10 23 7 24 8 25
REMARK SMILES IDX 11 26 9 28 25 30 26 31 27 32 28 33 29 34 30 35 37 36 31 37
REMARK SMILES IDX 35 38 32 39 33 40 36 41 34 43
REMARK H PARENT 16 8 19 10 22 14 11 27 9 29 36 42 34 44
ROOT
ATOM      1  C   UNL     1      -8.537  -2.223 -20.873  1.00  0.00     0.083 C 
ATOM      2  C   UNL     1      -7.664  -2.561 -22.078  1.00  0.00     0.162 C 
ATOM      3  C   UNL     1      -7.285  -1.295 -22.866  1.00  0.00     0.246 C 
ATOM      4  C   UNL     1      -8.542  -0.521 -23.312  1.00  0.00     0.223 C 
ATOM      5  C   UNL     1      -9.444  -0.202 -22.115  1.00  0.00     0.097 C 
ATOM      6  C   UNL     1      -9.792  -1.446 -21.297  1.00  0.00     0.168 C 
ENDROOT
BRANCH   2   7
ATOM      7  O   UNL     1      -8.414  -3.456 -22.915  1.00  0.00    -0.389 OA
ATOM      8  H   UNL     1      -8.446  -3.042 -23.802  1.00  0.00     0.211 HD
ENDBRANCH   2   7
BRANCH   6   9
ATOM      9  O   UNL     1     -10.669  -2.285 -22.079  1.00  0.00    -0.378 OA
ATOM     10  H   UNL     1     -10.097  -2.921 -22.571  1.00  0.00     0.212 HD
ENDBRANCH   6   9
BRANCH   6  11
ATOM     11  C   UNL     1     -10.573  -1.031 -20.042  1.00  0.00     0.335 C 
ATOM     12  O   UNL     1     -10.628  -1.673 -19.004  1.00  0.00    -0.249 OA
BRANCH  11  13
ATOM     13  O   UNL     1     -11.202   0.159 -20.218  1.00  0.00    -0.479 OA
ATOM     14  H   UNL     1     -12.150  -0.045 -20.416  1.00  0.00     0.296 HD
ENDBRANCH  11  13
ENDBRANCH   6  11
BRANCH   3  15
ATOM     15  O   UNL     1      -6.546  -1.686 -24.046  1.00  0.00    -0.452 OA
BRANCH  15  16
ATOM     16  C   UNL     1      -5.522  -0.874 -24.398  1.00  0.00     0.331 C 
ATOM     17  O   UNL     1      -4.953  -0.078 -23.672  1.00  0.00    -0.247 OA
BRANCH  16  18
ATOM     18  C   UNL     1      -5.209  -1.127 -25.817  1.00  0.00     0.094 C 
ATOM     19  C   UNL     1      -4.454  -0.251 -26.499  1.00  0.00     0.016 C 
BRANCH  19  20
ATOM     20  C   UNL     1      -4.081  -0.413 -27.912  1.00  0.00    -0.021 A 
ATOM     21  C   UNL     1      -4.117   0.714 -28.749  1.00  0.00     0.058 A 
ATOM     22  C   UNL     1      -3.744  -1.663 -28.460  1.00  0.00     0.012 A 
ATOM     23  C   UNL     1      -3.794   0.584 -30.097  1.00  0.00     0.157 A 
ATOM     24  C   UNL     1      -3.421  -1.784 -29.815  1.00  0.00     0.051 A 
ATOM     25  C   UNL     1      -3.447  -0.658 -30.621  1.00  0.00     0.157 A 
BRANCH  23  26
ATOM     26  O   UNL     1      -3.805   1.652 -30.951  1.00  0.00    -0.504 OA
ATOM     27  H   UNL     1      -2.891   1.827 -31.234  1.00  0.00     0.293 HD
ENDBRANCH  23  26
BRANCH  25  28
ATOM     28  O   UNL     1      -3.132  -0.777 -31.943  1.00  0.00    -0.504 OA
ATOM     29  H   UNL     1      -3.353   0.094 -32.329  1.00  0.00     0.293 HD
ENDBRANCH  25  28
ENDBRANCH  19  20
ENDBRANCH  16  18
ENDBRANCH  15  16
ENDBRANCH   3  15
BRANCH   4  30
ATOM     30  O   UNL     1      -8.147   0.750 -23.881  1.00  0.00    -0.455 OA
BRANCH  30  31
ATOM     31  C   UNL     1      -8.716   1.096 -25.060  1.00  0.00     0.331 C 
ATOM     32  O   UNL     1      -9.237   2.169 -25.327  1.00  0.00    -0.247 OA
BRANCH  31  33
ATOM     33  C   UNL     1      -8.652  -0.005 -26.044  1.00  0.00     0.094 C 
ATOM     34  C   UNL     1      -8.154   0.113 -27.284  1.00  0.00     0.016 C 
BRANCH  34  35
ATOM     35  C   UNL     1      -8.086  -1.006 -28.235  1.00  0.00    -0.021 A 
ATOM     36  C   UNL     1      -8.477  -2.283 -27.804  1.00  0.00     0.058 A 
ATOM     37  C   UNL     1      -7.595  -0.840 -29.541  1.00  0.00     0.012 A 
ATOM     38  C   UNL     1      -8.398  -3.360 -28.683  1.00  0.00     0.157 A 
ATOM     39  C   UNL     1      -7.518  -1.928 -30.416  1.00  0.00     0.051 A 
ATOM     40  C   UNL     1      -7.923  -3.178 -29.979  1.00  0.00     0.157 A 
BRANCH  38  41
ATOM     41  O   UNL     1      -8.776  -4.622 -28.317  1.00  0.00    -0.504 OA
ATOM     42  H   UNL     1      -9.729  -4.613 -28.123  1.00  0.00     0.293 HD
ENDBRANCH  38  41
BRANCH  40  43
ATOM     43  O   UNL     1      -7.848  -4.239 -30.833  1.00  0.00    -0.504 OA
ATOM     44  H   UNL     1      -7.152  -4.813 -30.453  1.00  0.00     0.293 HD
ENDBRANCH  40  43
ENDBRANCH  34  35
ENDBRANCH  31  33
ENDBRANCH  30  31
ENDBRANCH   4  30
TORSDOF 16
ENDMDL
MODEL 2
REMARK VINA RESULT:      -9.0      2.311      4.755
REMARK SMILES O=C(/C=C/c1ccc(O)c(O)c1)O[C@@H]1[C@H](O)C[C@@](O)(C(=O)O)C[C@H]1OC(=O)/C=C/c1ccc(O)c(O)c1
REMARK SMILES IDX 17 1 15 2 14 3 24 4 23 5 18 6 16 7 19 9 20 11 21 12 22 13
REMARK SMILES IDX 13 15 2 16 1 17 3 18 4 19 5 20 12 21 6 22 10 23 7 24 8 25
REMARK SMILES IDX 11 26 9 28 25 30 26 31 27 32 28 33 29 34 30 35 37 36 31 37
REMARK SMILES IDX 35 38 32 39 33 40 36 41 34 43
REMARK H PARENT 16 8 19 10 22 14 11 27 9 29 36 42 34 44
ROOT
ATOM      1  C   UNL     1     -10.839  -3.329 -22.782  1.00  0.00     0.083 C 
ATOM      2  C   UNL     1     -11.060  -2.930 -24.239  1.00  0.00     0.162 C 
ATOM      3  C   UNL     1      -9.724  -2.707 -24.966  1.00  0.00     0.246 C 
ATOM      4  C   UNL     1      -8.866  -1.649 -24.242  1.00  0.00     0.223 C 
ATOM      5  C   UNL     1      -8.662  -2.021 -22.770  1.00  0.00     0.097 C 
ATOM      6  C   UNL     1      -9.982  -2.289 -22.046  1.00  0.00     0.168 C 
ENDROOT
BRANCH   2   7
ATOM      7  O   UNL     1     -11.830  -1.717 -24.240  1.00  0.00    -0.389 OA
ATOM      8  H   UNL     1     -11.261  -1.030 -24.644  1.00  0.00     0.211 HD
ENDBRANCH   2   7
BRANCH   6   9
ATOM      9  O   UNL     1     -10.699  -1.043 -21.912  1.00  0.00    -0.378 OA
ATOM     10  H   UNL     1     -10.024  -0.324 -21.873  1.00  0.00     0.212 HD
ENDBRANCH   6   9
BRANCH   6  11
ATOM     11  C   UNL     1      -9.693  -2.793 -20.625  1.00  0.00     0.335 C 
ATOM     12  O   UNL     1     -10.039  -2.232 -19.596  1.00  0.00    -0.249 OA
BRANCH  11  13
ATOM     13  O   UNL     1      -9.002  -3.961 -20.642  1.00  0.00    -0.479 OA
ATOM     14  H   UNL     1      -9.244  -4.448 -19.815  1.00  0.00     0.296 HD
ENDBRANCH  11  13
ENDBRANCH   6  11
BRANCH   3  15
ATOM     15  O   UNL     1      -9.996  -2.237 -26.306  1.00  0.00    -0.452 OA
BRANCH  15  16
ATOM     16  C   UNL     1      -9.777  -3.127 -27.301  1.00  0.00     0.331 C 
ATOM     17  O   UNL     1      -9.821  -4.341 -27.203  1.00  0.00    -0.247 OA
BRANCH  16  18
ATOM     18  C   UNL     1      -9.482  -2.370 -28.532  1.00  0.00     0.094 C 
ATOM     19  C   UNL     1      -9.627  -1.035 -28.544  1.00  0.00     0.016 C 
BRANCH  19  20
ATOM     20  C   UNL     1      -9.355  -0.190 -29.716  1.00  0.00    -0.021 A 
ATOM     21  C   UNL     1     -10.354  -0.055 -30.694  1.00  0.00     0.058 A 
ATOM     22  C   UNL     1      -8.114   0.440 -29.914  1.00  0.00     0.012 A 
ATOM     23  C   UNL     1     -10.113   0.719 -31.825  1.00  0.00     0.157 A 
ATOM     24  C   UNL     1      -7.881   1.216 -31.053  1.00  0.00     0.051 A 
ATOM     25  C   UNL     1      -8.885   1.350 -31.998  1.00  0.00     0.157 A 
BRANCH  23  26
ATOM     26  O   UNL     1     -11.057   0.889 -32.801  1.00  0.00    -0.504 OA
ATOM     27  H   UNL     1     -11.934   0.902 -32.379  1.00  0.00     0.293 HD
ENDBRANCH  23  26
BRANCH  25  28
ATOM     28  O   UNL     1      -8.656   2.106 -33.111  1.00  0.00    -0.504 OA
ATOM     29  H   UNL     1      -7.720   2.376 -33.038  1.00  0.00     0.293 HD
ENDBRANCH  25  28
ENDBRANCH  19  20
ENDBRANCH  16  18
ENDBRANCH  15  16
ENDBRANCH   3  15
BRANCH   4  30
ATOM     30  O   UNL     1      -7.550  -1.605 -24.843  1.00  0.00    -0.455 OA
BRANCH  30  31
ATOM     31  C   UNL     1      -7.127  -0.402 -25.300  1.00  0.00     0.331 C 
ATOM     32  O   UNL     1      -7.256   0.674 -24.735  1.00  0.00    -0.247 OA
BRANCH  31  33
ATOM     33  C   UNL     1      -6.466  -0.517 -26.616  1.00  0.00     0.094 C 
ATOM     34  C   UNL     1      -5.160  -0.292 -26.832  1.00  0.00     0.016 C 
BRANCH  34  35
ATOM     35  C   UNL     1      -4.527  -0.433 -28.151  1.00  0.00    -0.021 A 
ATOM     36  C   UNL     1      -4.551   0.660 -29.032  1.00  0.00     0.058 A 
ATOM     37  C   UNL     1      -3.947  -1.643 -28.570  1.00  0.00     0.012 A 
ATOM     38  C   UNL     1      -3.976   0.538 -30.294  1.00  0.00     0.157 A 
ATOM     39  C   UNL     1      -3.374  -1.756 -29.839  1.00  0.00     0.051 A 
ATOM     40  C   UNL     1      -3.392  -0.662 -30.689  1.00  0.00     0.157 A 
BRANCH  38  41
ATOM     41  O   UNL     1      -3.962   1.575 -31.186  1.00  0.00    -0.504 OA
ATOM     42  H   UNL     1      -4.754   2.119 -31.035  1.00  0.00     0.293 HD
ENDBRANCH  38  41
BRANCH  40  43
ATOM     43  O   UNL     1      -2.832  -0.773 -31.929  1.00  0.00    -0.504 OA
ATOM     44  H   UNL     1      -2.386  -1.644 -31.921  1.00  0.00     0.293 HD
ENDBRANCH  40  43
ENDBRANCH  34  35
ENDBRANCH  31  33
ENDBRANCH  30  31
ENDBRANCH   4  30
TORSDOF 16
ENDMDL
MODEL 3
REMARK VINA RESULT:      -8.9      1.789      2.341
REMARK SMILES O=C(/C=C/c1ccc(O)c(O)c1)O[C@@H]1[C@H](O)C[C@@](O)(C(=O)O)C[C@H]1OC(=O)/C=C/c1ccc(O)c(O)c1
REMARK SMILES IDX 17 1 15 2 14 3 24 4 23 5 18 6 16 7 19 9 20 11 21 12 22 13
REMARK SMILES IDX 13 15 2 16 1 17 3 18 4 19 5 20 12 21 6 22 10 23 7 24 8 25
REMARK SMILES IDX 11 26 9 28 25 30 26 31 27 32 28 33 29 34 30 35 37 36 31 37
REMARK SMILES IDX 35 38 32 39 33 40 36 41 34 43
REMARK H PARENT 16 8 19 10 22 14 11 27 9 29 36 42 34 44
ROOT
ATOM      1  C   UNL     1      -8.439  -1.778 -20.626  1.00  0.00     0.083 C 
ATOM      2  C   UNL     1      -7.559  -2.177 -21.808  1.00  0.00     0.162 C 
ATOM      3  C   UNL     1      -7.763  -1.229 -23.002  1.00  0.00     0.246 C 
ATOM      4  C   UNL     1      -9.245  -1.180 -23.426  1.00  0.00     0.223 C 
ATOM      5  C   UNL     1     -10.144  -0.811 -22.242  1.00  0.00     0.097 C 
ATOM      6  C   UNL     1      -9.919  -1.719 -21.032  1.00  0.00     0.168 C 
ENDROOT
BRANCH   2   7
ATOM      7  O   UNL     1      -7.917  -3.518 -22.178  1.00  0.00    -0.389 OA
ATOM      8  H   UNL     1      -8.600  -3.807 -21.538  1.00  0.00     0.211 HD
ENDBRANCH   2   7
BRANCH   6   9
ATOM      9  O   UNL     1     -10.414  -3.038 -21.343  1.00  0.00    -0.378 OA
ATOM     10  H   UNL     1     -10.644  -3.042 -22.303  1.00  0.00     0.212 HD
ENDBRANCH   6   9
BRANCH   6  11
ATOM     11  C   UNL     1     -10.744  -1.202 -19.844  1.00  0.00     0.335 C 
ATOM     12  O   UNL     1     -10.881  -1.783 -18.779  1.00  0.00    -0.249 OA
BRANCH  11  13
ATOM     13  O   UNL     1     -11.307   0.003 -20.116  1.00  0.00    -0.479 OA
ATOM     14  H   UNL     1     -10.647   0.692 -19.853  1.00  0.00     0.296 HD
ENDBRANCH  11  13
ENDBRANCH   6  11
BRANCH   3  15
ATOM     15  O   UNL     1      -6.983  -1.713 -24.119  1.00  0.00    -0.452 OA
BRANCH  15  16
ATOM     16  C   UNL     1      -5.883  -0.989 -24.430  1.00  0.00     0.331 C 
ATOM     17  O   UNL     1      -5.237  -0.298 -23.663  1.00  0.00    -0.247 OA
BRANCH  16  18
ATOM     18  C   UNL     1      -5.597  -1.190 -25.863  1.00  0.00     0.094 C 
ATOM     19  C   UNL     1      -4.473  -0.686 -26.396  1.00  0.00     0.016 C 
BRANCH  19  20
ATOM     20  C   UNL     1      -4.094  -0.835 -27.808  1.00  0.00    -0.021 A 
ATOM     21  C   UNL     1      -2.970  -0.136 -28.279  1.00  0.00     0.058 A 
ATOM     22  C   UNL     1      -4.847  -1.606 -28.710  1.00  0.00     0.012 A 
ATOM     23  C   UNL     1      -2.604  -0.239 -29.618  1.00  0.00     0.157 A 
ATOM     24  C   UNL     1      -4.472  -1.703 -30.053  1.00  0.00     0.051 A 
ATOM     25  C   UNL     1      -3.351  -1.019 -30.494  1.00  0.00     0.157 A 
BRANCH  23  26
ATOM     26  O   UNL     1      -1.512   0.414 -30.122  1.00  0.00    -0.504 OA
ATOM     27  H   UNL     1      -1.073  -0.174 -30.760  1.00  0.00     0.293 HD
ENDBRANCH  23  26
BRANCH  25  28
ATOM     28  O   UNL     1      -2.985  -1.113 -31.806  1.00  0.00    -0.504 OA
ATOM     29  H   UNL     1      -3.722  -0.699 -32.297  1.00  0.00     0.293 HD
ENDBRANCH  25  28
ENDBRANCH  19  20
ENDBRANCH  16  18
ENDBRANCH  15  16
ENDBRANCH   3  15
BRANCH   4  30
ATOM     30  O   UNL     1      -9.426  -0.144 -24.421  1.00  0.00    -0.455 OA
BRANCH  30  31
ATOM     31  C   UNL     1     -10.137  -0.474 -25.526  1.00  0.00     0.331 C 
ATOM     32  O   UNL     1     -11.256  -0.966 -25.548  1.00  0.00    -0.247 OA
BRANCH  31  33
ATOM     33  C   UNL     1      -9.393  -0.175 -26.766  1.00  0.00     0.094 C 
ATOM     34  C   UNL     1      -8.401   0.725 -26.858  1.00  0.00     0.016 C 
BRANCH  34  35
ATOM     35  C   UNL     1      -7.666   0.988 -28.103  1.00  0.00    -0.021 A 
ATOM     36  C   UNL     1      -8.029   0.287 -29.263  1.00  0.00     0.058 A 
ATOM     37  C   UNL     1      -6.580   1.880 -28.149  1.00  0.00     0.012 A 
ATOM     38  C   UNL     1      -7.329   0.506 -30.446  1.00  0.00     0.157 A 
ATOM     39  C   UNL     1      -5.882   2.091 -29.341  1.00  0.00     0.051 A 
ATOM     40  C   UNL     1      -6.266   1.403 -30.481  1.00  0.00     0.157 A 
BRANCH  38  41
ATOM     41  O   UNL     1      -7.649  -0.143 -31.607  1.00  0.00    -0.504 OA
ATOM     42  H   UNL     1      -8.617  -0.141 -31.703  1.00  0.00     0.293 HD
ENDBRANCH  38  41
BRANCH  40  43
ATOM     43  O   UNL     1      -5.584   1.610 -31.644  1.00  0.00    -0.504 OA
ATOM     44  H   UNL     1      -6.223   1.381 -32.349  1.00  0.00     0.293 HD
ENDBRANCH  40  43
ENDBRANCH  34  35
ENDBRANCH  31  33
ENDBRANCH  30  31
ENDBRANCH   4  30
TORSDOF 16
ENDMDL
MODEL 4
REMARK VINA RESULT:      -8.9      1.071      4.587
REMARK SMILES O=C(/C=C/c1ccc(O)c(O)c1)O[C@@H]1[C@H](O)C[C@@](O)(C(=O)O)C[C@H]1OC(=O)/C=C/c1ccc(O)c(O)c1
REMARK SMILES IDX 17 1 15 2 14 3 24 4 23 5 18 6 16 7 19 9 20 11 21 12 22 13
REMARK SMILES IDX 13 15 2 16 1 17 3 18 4 19 5 20 12 21 6 22 10 23 7 24 8 25
REMARK SMILES IDX 11 26 9 28 25 30 26 31 27 32 28 33 29 34 30 35 37 36 31 37
REMARK SMILES IDX 35 38 32 39 33 40 36 41 34 43
REMARK H PARENT 16 8 19 10 22 14 11 27 9 29 36 42 34 44
ROOT
ATOM      1  C   UNL     1      -9.901  -1.699 -22.246  1.00  0.00     0.083 C 
ATOM      2  C   UNL     1      -9.604  -0.289 -22.748  1.00  0.00     0.162 C 
ATOM      3  C   UNL     1      -8.501  -0.297 -23.819  1.00  0.00     0.246 C 
ATOM      4  C   UNL     1      -7.215  -0.961 -23.288  1.00  0.00     0.223 C 
ATOM      5  C   UNL     1      -7.503  -2.367 -22.752  1.00  0.00     0.097 C 
ATOM      6  C   UNL     1      -8.629  -2.379 -21.717  1.00  0.00     0.168 C 
ENDROOT
BRANCH   2   7
ATOM      7  O   UNL     1      -9.185   0.491 -21.616  1.00  0.00    -0.389 OA
ATOM      8  H   UNL     1      -8.681  -0.115 -21.035  1.00  0.00     0.211 HD
ENDBRANCH   2   7
BRANCH   6   9
ATOM      9  O   UNL     1      -8.164  -1.724 -20.518  1.00  0.00    -0.378 OA
ATOM     10  H   UNL     1      -7.240  -2.033 -20.360  1.00  0.00     0.212 HD
ENDBRANCH   6   9
BRANCH   6  11
ATOM     11  C   UNL     1      -8.958  -3.829 -21.335  1.00  0.00     0.335 C 
ATOM     12  O   UNL     1      -8.938  -4.780 -22.101  1.00  0.00    -0.249 OA
BRANCH  11  13
ATOM     13  O   UNL     1      -9.272  -3.938 -20.018  1.00  0.00    -0.479 OA
ATOM     14  H   UNL     1      -9.491  -3.027 -19.701  1.00  0.00     0.296 HD
ENDBRANCH  11  13
ENDBRANCH   6  11
BRANCH   3  15
ATOM     15  O   UNL     1      -8.194   1.068 -24.182  1.00  0.00    -0.452 OA
BRANCH  15  16
ATOM     16  C   UNL     1      -8.518   1.432 -25.445  1.00  0.00     0.331 C 
ATOM     17  O   UNL     1      -8.745   2.564 -25.832  1.00  0.00    -0.247 OA
BRANCH  16  18
ATOM     18  C   UNL     1      -8.542   0.213 -26.276  1.00  0.00     0.094 C 
ATOM     19  C   UNL     1      -8.042   0.246 -27.521  1.00  0.00     0.016 C 
BRANCH  19  20
ATOM     20  C   UNL     1      -8.014  -0.912 -28.427  1.00  0.00    -0.021 A 
ATOM     21  C   UNL     1      -8.337  -2.177 -27.910  1.00  0.00     0.058 A 
ATOM     22  C   UNL     1      -7.622  -0.802 -29.772  1.00  0.00     0.012 A 
ATOM     23  C   UNL     1      -8.293  -3.294 -28.739  1.00  0.00     0.157 A 
ATOM     24  C   UNL     1      -7.581  -1.930 -30.598  1.00  0.00     0.051 A 
ATOM     25  C   UNL     1      -7.919  -3.166 -30.073  1.00  0.00     0.157 A 
BRANCH  23  26
ATOM     26  O   UNL     1      -8.608  -4.546 -28.285  1.00  0.00    -0.504 OA
ATOM     27  H   UNL     1      -7.791  -4.974 -27.977  1.00  0.00     0.293 HD
ENDBRANCH  23  26
BRANCH  25  28
ATOM     28  O   UNL     1      -7.878  -4.267 -30.879  1.00  0.00    -0.504 OA
ATOM     29  H   UNL     1      -8.756  -4.681 -30.776  1.00  0.00     0.293 HD
ENDBRANCH  25  28
ENDBRANCH  19  20
ENDBRANCH  16  18
ENDBRANCH  15  16
ENDBRANCH   3  15
BRANCH   4  30
ATOM     30  O   UNL     1      -6.271  -1.119 -24.375  1.00  0.00    -0.455 OA
BRANCH  30  31
ATOM     31  C   UNL     1      -5.235  -0.249 -24.416  1.00  0.00     0.331 C 
ATOM     32  O   UNL     1      -4.704   0.293 -23.457  1.00  0.00    -0.247 OA
BRANCH  31  33
ATOM     33  C   UNL     1      -4.785   0.003 -25.800  1.00  0.00     0.094 C 
ATOM     34  C   UNL     1      -4.659  -0.945 -26.742  1.00  0.00     0.016 C 
BRANCH  34  35
ATOM     35  C   UNL     1      -4.227  -0.661 -28.118  1.00  0.00    -0.021 A 
ATOM     36  C   UNL     1      -4.258   0.666 -28.576  1.00  0.00     0.058 A 
ATOM     37  C   UNL     1      -3.835  -1.684 -28.998  1.00  0.00     0.012 A 
ATOM     38  C   UNL     1      -3.875   0.951 -29.883  1.00  0.00     0.157 A 
ATOM     39  C   UNL     1      -3.453  -1.387 -30.310  1.00  0.00     0.051 A 
ATOM     40  C   UNL     1      -3.474  -0.071 -30.739  1.00  0.00     0.157 A 
BRANCH  38  41
ATOM     41  O   UNL     1      -3.876   2.227 -30.375  1.00  0.00    -0.504 OA
ATOM     42  H   UNL     1      -2.959   2.551 -30.390  1.00  0.00     0.293 HD
ENDBRANCH  38  41
BRANCH  40  43
ATOM     43  O   UNL     1      -3.101   0.218 -32.019  1.00  0.00    -0.504 OA
ATOM     44  H   UNL     1      -2.140   0.394 -31.962  1.00  0.00     0.293 HD
ENDBRANCH  40  43
ENDBRANCH  34  35
ENDBRANCH  31  33
ENDBRANCH  30  31
ENDBRANCH   4  30
TORSDOF 16
ENDMDL
MODEL 5
REMARK VINA RESULT:      -8.9      1.860      4.090
REMARK SMILES O=C(/C=C/c1ccc(O)c(O)c1)O[C@@H]1[C@H](O)C[C@@](O)(C(=O)O)C[C@H]1OC(=O)/C=C/c1ccc(O)c(O)c1
REMARK SMILES IDX 17 1 15 2 14 3 24 4 23 5 18 6 16 7 19 9 20 11 21 12 22 13
REMARK SMILES IDX 13 15 2 16 1 17 3 18 4 19 5 20 12 21 6 22 10 23 7 24 8 25
REMARK SMILES IDX 11 26 9 28 25 30 26 31 27 32 28 33 29 34 30 35 37 36 31 37
REMARK SMILES IDX 35 38 32 39 33 40 36 41 34 43
REMARK H PARENT 16 8 19 10 22 14 11 27 9 29 36 42 34 44
ROOT
ATOM      1  C   UNL     1     -10.547  -2.238 -22.763  1.00  0.00     0.083 C 
ATOM      2  C   UNL     1     -10.432  -1.394 -24.029  1.00  0.00     0.162 C 
ATOM      3  C   UNL     1      -9.074  -1.604 -24.720  1.00  0.00     0.246 C 
ATOM      4  C   UNL     1      -7.907  -1.296 -23.760  1.00  0.00     0.223 C 
ATOM      5  C   UNL     1      -8.027  -2.114 -22.470  1.00  0.00     0.097 C 
ATOM      6  C   UNL     1      -9.389  -1.948 -21.796  1.00  0.00     0.168 C 
ENDROOT
BRANCH   2   7
ATOM      7  O   UNL     1     -10.579  -0.017 -23.643  1.00  0.00    -0.389 OA
ATOM      8  H   UNL     1     -11.339   0.017 -23.028  1.00  0.00     0.211 HD
ENDBRANCH   2   7
BRANCH   6   9
ATOM      9  O   UNL     1      -9.487  -0.606 -21.273  1.00  0.00    -0.378 OA
ATOM     10  H   UNL     1      -9.740  -0.684 -20.322  1.00  0.00     0.212 HD
ENDBRANCH   6   9
BRANCH   6  11
ATOM     11  C   UNL     1      -9.487  -2.902 -20.597  1.00  0.00     0.335 C 
ATOM     12  O   UNL     1     -10.009  -2.633 -19.526  1.00  0.00    -0.249 OA
BRANCH  11  13
ATOM     13  O   UNL     1      -8.923  -4.106 -20.871  1.00  0.00    -0.479 OA
ATOM     14  H   UNL     1      -8.530  -4.038 -21.777  1.00  0.00     0.296 HD
ENDBRANCH  11  13
ENDBRANCH   6  11
BRANCH   3  15
ATOM     15  O   UNL     1      -8.984  -0.709 -25.852  1.00  0.00    -0.452 OA
BRANCH  15  16
ATOM     16  C   UNL     1      -9.151  -1.276 -27.069  1.00  0.00     0.331 C 
ATOM     17  O   UNL     1      -9.969  -2.132 -27.358  1.00  0.00    -0.247 OA
BRANCH  16  18
ATOM     18  C   UNL     1      -8.172  -0.669 -27.991  1.00  0.00     0.094 C 
ATOM     19  C   UNL     1      -7.820   0.616 -27.838  1.00  0.00     0.016 C 
BRANCH  19  20
ATOM     20  C   UNL     1      -6.852   1.312 -28.699  1.00  0.00    -0.021 A 
ATOM     21  C   UNL     1      -5.875   2.120 -28.094  1.00  0.00     0.058 A 
ATOM     22  C   UNL     1      -6.907   1.239 -30.101  1.00  0.00     0.012 A 
ATOM     23  C   UNL     1      -4.962   2.810 -28.886  1.00  0.00     0.157 A 
ATOM     24  C   UNL     1      -5.987   1.936 -30.889  1.00  0.00     0.051 A 
ATOM     25  C   UNL     1      -5.020   2.714 -30.273  1.00  0.00     0.157 A 
BRANCH  23  26
ATOM     26  O   UNL     1      -3.986   3.601 -28.345  1.00  0.00    -0.504 OA
ATOM     27  H   UNL     1      -3.251   3.656 -28.980  1.00  0.00     0.293 HD
ENDBRANCH  23  26
BRANCH  25  28
ATOM     28  O   UNL     1      -4.122   3.395 -31.043  1.00  0.00    -0.504 OA
ATOM     29  H   UNL     1      -4.522   3.407 -31.935  1.00  0.00     0.293 HD
ENDBRANCH  25  28
ENDBRANCH  19  20
ENDBRANCH  16  18
ENDBRANCH  15  16
ENDBRANCH   3  15
BRANCH   4  30
ATOM     30  O   UNL     1      -6.658  -1.685 -24.381  1.00  0.00    -0.455 OA
BRANCH  30  31
ATOM     31  C   UNL     1      -5.668  -0.761 -24.391  1.00  0.00     0.331 C 
ATOM     32  O   UNL     1      -5.253  -0.132 -23.429  1.00  0.00    -0.247 OA
BRANCH  31  33
ATOM     33  C   UNL     1      -5.111  -0.570 -25.746  1.00  0.00     0.094 C 
ATOM     34  C   UNL     1      -4.951  -1.553 -26.647  1.00  0.00     0.016 C 
BRANCH  34  35
ATOM     35  C   UNL     1      -4.411  -1.329 -27.995  1.00  0.00    -0.021 A 
ATOM     36  C   UNL     1      -3.310  -0.472 -28.148  1.00  0.00     0.058 A 
ATOM     37  C   UNL     1      -4.997  -1.908 -29.134  1.00  0.00     0.012 A 
ATOM     38  C   UNL     1      -2.799  -0.230 -29.420  1.00  0.00     0.157 A 
ATOM     39  C   UNL     1      -4.478  -1.657 -30.407  1.00  0.00     0.051 A 
ATOM     40  C   UNL     1      -3.381  -0.821 -30.538  1.00  0.00     0.157 A 
BRANCH  38  41
ATOM     41  O   UNL     1      -1.722   0.588 -29.624  1.00  0.00    -0.504 OA
ATOM     42  H   UNL     1      -1.943   1.216 -30.333  1.00  0.00     0.293 HD
ENDBRANCH  38  41
BRANCH  40  43
ATOM     43  O   UNL     1      -2.874  -0.577 -31.781  1.00  0.00    -0.504 OA
ATOM     44  H   UNL     1      -2.521   0.334 -31.728  1.00  0.00     0.293 HD
ENDBRANCH  40  43
ENDBRANCH  34  35
ENDBRANCH  31  33
ENDBRANCH  30  31
ENDBRANCH   4  30
TORSDOF 16
ENDMDL
MODEL 6
REMARK VINA RESULT:      -8.9      1.964      4.444
REMARK SMILES O=C(/C=C/c1ccc(O)c(O)c1)O[C@@H]1[C@H](O)C[C@@](O)(C(=O)O)C[C@H]1OC(=O)/C=C/c1ccc(O)c(O)c1
REMARK SMILES IDX 17 1 15 2 14 3 24 4 23 5 18 6 16 7 19 9 20 11 21 12 22 13
REMARK SMILES IDX 13 15 2 16 1 17 3 18 4 19 5 20 12 21 6 22 10 23 7 24 8 25
REMARK SMILES IDX 11 26 9 28 25 30 26 31 27 32 28 33 29 34 30 35 37 36 31 37
REMARK SMILES IDX 35 38 32 39 33 40 36 41 34 43
REMARK H PARENT 16 8 19 10 22 14 11 27 9 29 36 42 34 44
ROOT
ATOM      1  C   UNL     1     -10.764  -3.123 -22.850  1.00  0.00     0.083 C 
ATOM      2  C   UNL     1     -10.832  -2.641 -24.297  1.00  0.00     0.162 C 
ATOM      3  C   UNL     1      -9.427  -2.504 -24.907  1.00  0.00     0.246 C 
ATOM      4  C   UNL     1      -8.545  -1.559 -24.066  1.00  0.00     0.223 C 
ATOM      5  C   UNL     1      -8.493  -2.014 -22.604  1.00  0.00     0.097 C 
ATOM      6  C   UNL     1      -9.885  -2.196 -21.998  1.00  0.00     0.168 C 
ENDROOT
BRANCH   2   7
ATOM      7  O   UNL     1     -11.494  -1.366 -24.295  1.00  0.00    -0.389 OA
ATOM      8  H   UNL     1     -12.334  -1.492 -23.808  1.00  0.00     0.211 HD
ENDBRANCH   2   7
BRANCH   6   9
ATOM      9  O   UNL     1     -10.502  -0.899 -21.854  1.00  0.00    -0.378 OA
ATOM     10  H   UNL     1      -9.836  -0.229 -22.137  1.00  0.00     0.212 HD
ENDBRANCH   6   9
BRANCH   6  11
ATOM     11  C   UNL     1      -9.755  -2.787 -20.586  1.00  0.00     0.335 C 
ATOM     12  O   UNL     1     -10.174  -2.265 -19.565  1.00  0.00    -0.249 OA
BRANCH  11  13
ATOM     13  O   UNL     1      -9.117  -3.985 -20.605  1.00  0.00    -0.479 OA
ATOM     14  H   UNL     1      -9.485  -4.517 -19.856  1.00  0.00     0.296 HD
ENDBRANCH  11  13
ENDBRANCH   6  11
BRANCH   3  15
ATOM     15  O   UNL     1      -9.549  -1.952 -26.238  1.00  0.00    -0.452 OA
BRANCH  15  16
ATOM     16  C   UNL     1      -9.584  -2.850 -27.249  1.00  0.00     0.331 C 
ATOM     17  O   UNL     1      -9.624  -4.062 -27.135  1.00  0.00    -0.247 OA
BRANCH  16  18
ATOM     18  C   UNL     1      -9.573  -2.103 -28.521  1.00  0.00     0.094 C 
ATOM     19  C   UNL     1      -8.459  -2.077 -29.269  1.00  0.00     0.016 C 
BRANCH  19  20
ATOM     20  C   UNL     1      -8.346  -1.367 -30.552  1.00  0.00    -0.021 A 
ATOM     21  C   UNL     1      -7.253  -0.509 -30.751  1.00  0.00     0.058 A 
ATOM     22  C   UNL     1      -9.321  -1.477 -31.558  1.00  0.00     0.012 A 
ATOM     23  C   UNL     1      -7.135   0.195 -31.946  1.00  0.00     0.157 A 
ATOM     24  C   UNL     1      -9.196  -0.766 -32.755  1.00  0.00     0.051 A 
ATOM     25  C   UNL     1      -8.101   0.063 -32.939  1.00  0.00     0.157 A 
BRANCH  23  26
ATOM     26  O   UNL     1      -6.084   1.035 -32.191  1.00  0.00    -0.504 OA
ATOM     27  H   UNL     1      -5.993   1.640 -31.434  1.00  0.00     0.293 HD
ENDBRANCH  23  26
BRANCH  25  28
ATOM     28  O   UNL     1      -7.979   0.757 -34.107  1.00  0.00    -0.504 OA
ATOM     29  H   UNL     1      -8.685   0.401 -34.681  1.00  0.00     0.293 HD
ENDBRANCH  25  28
ENDBRANCH  19  20
ENDBRANCH  16  18
ENDBRANCH  15  16
ENDBRANCH   3  15
BRANCH   4  30
ATOM     30  O   UNL     1      -7.185  -1.604 -24.561  1.00  0.00    -0.455 OA
BRANCH  30  31
ATOM     31  C   UNL     1      -6.620  -0.421 -24.901  1.00  0.00     0.331 C 
ATOM     32  O   UNL     1      -6.552   0.578 -24.200  1.00  0.00    -0.247 OA
BRANCH  31  33
ATOM     33  C   UNL     1      -6.070  -0.450 -26.272  1.00  0.00     0.094 C 
ATOM     34  C   UNL     1      -4.777  -0.662 -26.567  1.00  0.00     0.016 C 
BRANCH  34  35
ATOM     35  C   UNL     1      -4.262  -0.704 -27.943  1.00  0.00    -0.021 A 
ATOM     36  C   UNL     1      -4.190   0.491 -28.674  1.00  0.00     0.058 A 
ATOM     37  C   UNL     1      -3.891  -1.912 -28.559  1.00  0.00     0.012 A 
ATOM     38  C   UNL     1      -3.726   0.468 -29.986  1.00  0.00     0.157 A 
ATOM     39  C   UNL     1      -3.429  -1.926 -29.878  1.00  0.00     0.051 A 
ATOM     40  C   UNL     1      -3.348  -0.734 -30.579  1.00  0.00     0.157 A 
BRANCH  38  41
ATOM     41  O   UNL     1      -3.625   1.605 -30.739  1.00  0.00    -0.504 OA
ATOM     42  H   UNL     1      -2.810   2.070 -30.485  1.00  0.00     0.293 HD
ENDBRANCH  38  41
BRANCH  40  43
ATOM     43  O   UNL     1      -2.897  -0.748 -31.866  1.00  0.00    -0.504 OA
ATOM     44  H   UNL     1      -3.673  -0.486 -32.402  1.00  0.00     0.293 HD
ENDBRANCH  40  43
ENDBRANCH  34  35
ENDBRANCH  31  33
ENDBRANCH  30  31
ENDBRANCH   4  30
TORSDOF 16
ENDMDL
MODEL 7
REMARK VINA RESULT:      -8.8      2.879      5.655
REMARK SMILES O=C(/C=C/c1ccc(O)c(O)c1)O[C@@H]1[C@H](O)C[C@@](O)(C(=O)O)C[C@H]1OC(=O)/C=C/c1ccc(O)c(O)c1
REMARK SMILES IDX 17 1 15 2 14 3 24 4 23 5 18 6 16 7 19 9 20 11 21 12 22 13
REMARK SMILES IDX 13 15 2 16 1 17 3 18 4 19 5 20 12 21 6 22 10 23 7 24 8 25
REMARK SMILES IDX 11 26 9 28 25 30 26 31 27 32 28 33 29 34 30 35 37 36 31 37
REMARK SMILES IDX 35 38 32 39 33 40 36 41 34 43
REMARK H PARENT 16 8 19 10 22 14 11 27 9 29 36 42 34 44
ROOT
ATOM      1  C   UNL     1     -11.665  -3.393 -25.028  1.00  0.00     0.083 C 
ATOM      2  C   UNL     1     -10.475  -2.437 -25.008  1.00  0.00     0.162 C 
ATOM      3  C   UNL     1     -10.007  -2.098 -26.434  1.00  0.00     0.246 C 
ATOM      4  C   UNL     1      -9.659  -3.376 -27.224  1.00  0.00     0.223 C 
ATOM      5  C   UNL     1     -10.834  -4.358 -27.225  1.00  0.00     0.097 C 
ATOM      6  C   UNL     1     -11.337  -4.670 -25.815  1.00  0.00     0.168 C 
ENDROOT
BRANCH   2   7
ATOM      7  O   UNL     1      -9.415  -3.083 -24.284  1.00  0.00    -0.389 OA
ATOM      8  H   UNL     1      -9.761  -3.255 -23.384  1.00  0.00     0.211 HD
ENDBRANCH   2   7
BRANCH   6   9
ATOM      9  O   UNL     1     -10.336  -5.450 -25.127  1.00  0.00    -0.378 OA
ATOM     10  H   UNL     1      -9.457  -5.152 -25.462  1.00  0.00     0.212 HD
ENDBRANCH   6   9
BRANCH   6  11
ATOM     11  C   UNL     1     -12.599  -5.542 -25.903  1.00  0.00     0.335 C 
ATOM     12  O   UNL     1     -13.450  -5.636 -25.032  1.00  0.00    -0.249 OA
BRANCH  11  13
ATOM     13  O   UNL     1     -12.666  -6.203 -27.087  1.00  0.00    -0.479 OA
ATOM     14  H   UNL     1     -11.748  -6.220 -27.457  1.00  0.00     0.296 HD
ENDBRANCH  11  13
ENDBRANCH   6  11
BRANCH   3  15
ATOM     15  O   UNL     1      -8.822  -1.274 -26.351  1.00  0.00    -0.452 OA
BRANCH  15  16
ATOM     16  C   UNL     1      -8.971   0.016 -26.734  1.00  0.00     0.331 C 
ATOM     17  O   UNL     1      -9.125   0.972 -25.995  1.00  0.00    -0.247 OA
BRANCH  16  18
ATOM     18  C   UNL     1      -8.906   0.063 -28.207  1.00  0.00     0.094 C 
ATOM     19  C   UNL     1      -7.936   0.769 -28.808  1.00  0.00     0.016 C 
BRANCH  19  20
ATOM     20  C   UNL     1      -7.781   0.876 -30.266  1.00  0.00    -0.021 A 
ATOM     21  C   UNL     1      -8.659   0.154 -31.090  1.00  0.00     0.058 A 
ATOM     22  C   UNL     1      -6.753   1.631 -30.858  1.00  0.00     0.012 A 
ATOM     23  C   UNL     1      -8.518   0.216 -32.473  1.00  0.00     0.157 A 
ATOM     24  C   UNL     1      -6.618   1.688 -32.248  1.00  0.00     0.051 A 
ATOM     25  C   UNL     1      -7.505   0.981 -33.044  1.00  0.00     0.157 A 
BRANCH  23  26
ATOM     26  O   UNL     1      -9.354  -0.461 -33.318  1.00  0.00    -0.504 OA
ATOM     27  H   UNL     1      -9.817   0.188 -33.875  1.00  0.00     0.293 HD
ENDBRANCH  23  26
BRANCH  25  28
ATOM     28  O   UNL     1      -7.372   1.036 -34.401  1.00  0.00    -0.504 OA
ATOM     29  H   UNL     1      -6.765   1.785 -34.559  1.00  0.00     0.293 HD
ENDBRANCH  25  28
ENDBRANCH  19  20
ENDBRANCH  16  18
ENDBRANCH  15  16
ENDBRANCH   3  15
BRANCH   4  30
ATOM     30  O   UNL     1      -9.407  -3.031 -28.607  1.00  0.00    -0.455 OA
BRANCH  30  31
ATOM     31  C   UNL     1      -8.335  -3.614 -29.197  1.00  0.00     0.331 C 
ATOM     32  O   UNL     1      -8.346  -4.627 -29.881  1.00  0.00    -0.247 OA
BRANCH  31  33
ATOM     33  C   UNL     1      -7.086  -2.877 -28.915  1.00  0.00     0.094 C 
ATOM     34  C   UNL     1      -6.296  -2.335 -29.856  1.00  0.00     0.016 C 
BRANCH  34  35
ATOM     35  C   UNL     1      -5.068  -1.591 -29.544  1.00  0.00    -0.021 A 
ATOM     36  C   UNL     1      -4.277  -1.118 -30.603  1.00  0.00     0.058 A 
ATOM     37  C   UNL     1      -4.641  -1.386 -28.221  1.00  0.00     0.012 A 
ATOM     38  C   UNL     1      -3.099  -0.430 -30.327  1.00  0.00     0.157 A 
ATOM     39  C   UNL     1      -3.455  -0.696 -27.954  1.00  0.00     0.051 A 
ATOM     40  C   UNL     1      -2.696  -0.222 -29.011  1.00  0.00     0.157 A 
BRANCH  38  41
ATOM     41  O   UNL     1      -2.298   0.061 -31.321  1.00  0.00    -0.504 OA
ATOM     42  H   UNL     1      -2.395   1.028 -31.343  1.00  0.00     0.293 HD
ENDBRANCH  38  41
BRANCH  40  43
ATOM     43  O   UNL     1      -1.538   0.451 -28.750  1.00  0.00    -0.504 OA
ATOM     44  H   UNL     1      -0.961   0.254 -29.515  1.00  0.00     0.293 HD
ENDBRANCH  40  43
ENDBRANCH  34  35
ENDBRANCH  31  33
ENDBRANCH  30  31
ENDBRANCH   4  30
TORSDOF 16
ENDMDL
MODEL 8
REMARK VINA RESULT:      -8.7      2.674      5.283
REMARK SMILES O=C(/C=C/c1ccc(O)c(O)c1)O[C@@H]1[C@H](O)C[C@@](O)(C(=O)O)C[C@H]1OC(=O)/C=C/c1ccc(O)c(O)c1
REMARK SMILES IDX 17 1 15 2 14 3 24 4 23 5 18 6 16 7 19 9 20 11 21 12 22 13
REMARK SMILES IDX 13 15 2 16 1 17 3 18 4 19 5 20 12 21 6 22 10 23 7 24 8 25
REMARK SMILES IDX 11 26 9 28 25 30 26 31 27 32 28 33 29 34 30 35 37 36 31 37
REMARK SMILES IDX 35 38 32 39 33 40 36 41 34 43
REMARK H PARENT 16 8 19 10 22 14 11 27 9 29 36 42 34 44
ROOT
ATOM      1  C   UNL     1     -11.736  -3.401 -24.782  1.00  0.00     0.083 C 
ATOM      2  C   UNL     1     -10.513  -2.489 -24.730  1.00  0.00     0.162 C 
ATOM      3  C   UNL     1     -10.082  -2.051 -26.141  1.00  0.00     0.246 C 
ATOM      4  C   UNL     1      -9.805  -3.272 -27.042  1.00  0.00     0.223 C 
ATOM      5  C   UNL     1     -11.014  -4.213 -27.078  1.00  0.00     0.097 C 
ATOM      6  C   UNL     1     -11.480  -4.621 -25.680  1.00  0.00     0.168 C 
ENDROOT
BRANCH   2   7
ATOM      7  O   UNL     1      -9.453  -3.226 -24.098  1.00  0.00    -0.389 OA
ATOM      8  H   UNL     1      -9.813  -4.116 -23.906  1.00  0.00     0.211 HD
ENDBRANCH   2   7
BRANCH   6   9
ATOM      9  O   UNL     1     -10.485  -5.485 -25.093  1.00  0.00    -0.378 OA
ATOM     10  H   UNL     1     -10.914  -5.944 -24.331  1.00  0.00     0.212 HD
ENDBRANCH   6   9
BRANCH   6  11
ATOM     11  C   UNL     1     -12.774  -5.441 -25.791  1.00  0.00     0.335 C 
ATOM     12  O   UNL     1     -13.532  -5.686 -24.866  1.00  0.00    -0.249 OA
BRANCH  11  13
ATOM     13  O   UNL     1     -12.987  -5.864 -27.064  1.00  0.00    -0.479 OA
ATOM     14  H   UNL     1     -12.752  -5.110 -27.659  1.00  0.00     0.296 HD
ENDBRANCH  11  13
ENDBRANCH   6  11
BRANCH   3  15
ATOM     15  O   UNL     1      -8.866  -1.276 -26.035  1.00  0.00    -0.452 OA
BRANCH  15  16
ATOM     16  C   UNL     1      -9.029   0.055 -25.848  1.00  0.00     0.331 C 
ATOM     17  O   UNL     1      -9.889   0.586 -25.168  1.00  0.00    -0.247 OA
BRANCH  16  18
ATOM     18  C   UNL     1      -7.974   0.753 -26.607  1.00  0.00     0.094 C 
ATOM     19  C   UNL     1      -8.004   0.749 -27.948  1.00  0.00     0.016 C 
BRANCH  19  20
ATOM     20  C   UNL     1      -7.006   1.417 -28.795  1.00  0.00    -0.021 A 
ATOM     21  C   UNL     1      -5.913   2.047 -28.177  1.00  0.00     0.058 A 
ATOM     22  C   UNL     1      -7.138   1.494 -30.193  1.00  0.00     0.012 A 
ATOM     23  C   UNL     1      -4.967   2.709 -28.954  1.00  0.00     0.157 A 
ATOM     24  C   UNL     1      -6.183   2.161 -30.965  1.00  0.00     0.051 A 
ATOM     25  C   UNL     1      -5.104   2.761 -30.338  1.00  0.00     0.157 A 
BRANCH  23  26
ATOM     26  O   UNL     1      -3.880   3.329 -28.400  1.00  0.00    -0.504 OA
ATOM     27  H   UNL     1      -3.078   2.876 -28.713  1.00  0.00     0.293 HD
ENDBRANCH  23  26
BRANCH  25  28
ATOM     28  O   UNL     1      -4.172   3.414 -31.092  1.00  0.00    -0.504 OA
ATOM     29  H   UNL     1      -3.335   3.303 -30.600  1.00  0.00     0.293 HD
ENDBRANCH  25  28
ENDBRANCH  19  20
ENDBRANCH  16  18
ENDBRANCH  15  16
ENDBRANCH   3  15
BRANCH   4  30
ATOM     30  O   UNL     1      -9.588  -2.826 -28.401  1.00  0.00    -0.455 OA
BRANCH  30  31
ATOM     31  C   UNL     1      -8.512  -3.335 -29.048  1.00  0.00     0.331 C 
ATOM     32  O   UNL     1      -8.500  -4.324 -29.766  1.00  0.00    -0.247 OA
BRANCH  31  33
ATOM     33  C   UNL     1      -7.290  -2.548 -28.784  1.00  0.00     0.094 C 
ATOM     34  C   UNL     1      -6.240  -2.474 -29.617  1.00  0.00     0.016 C 
BRANCH  34  35
ATOM     35  C   UNL     1      -5.045  -1.667 -29.335  1.00  0.00    -0.021 A 
ATOM     36  C   UNL     1      -4.334  -1.113 -30.412  1.00  0.00     0.058 A 
ATOM     37  C   UNL     1      -4.568  -1.480 -28.026  1.00  0.00     0.012 A 
ATOM     38  C   UNL     1      -3.187  -0.365 -30.166  1.00  0.00     0.157 A 
ATOM     39  C   UNL     1      -3.414  -0.728 -27.790  1.00  0.00     0.051 A 
ATOM     40  C   UNL     1      -2.735  -0.175 -28.863  1.00  0.00     0.157 A 
BRANCH  38  41
ATOM     41  O   UNL     1      -2.464   0.206 -31.177  1.00  0.00    -0.504 OA
ATOM     42  H   UNL     1      -2.174  -0.498 -31.782  1.00  0.00     0.293 HD
ENDBRANCH  38  41
BRANCH  40  43
ATOM     43  O   UNL     1      -1.608   0.559 -28.631  1.00  0.00    -0.504 OA
ATOM     44  H   UNL     1      -1.112   0.522 -29.474  1.00  0.00     0.293 HD
ENDBRANCH  40  43
ENDBRANCH  34  35
ENDBRANCH  31  33
ENDBRANCH  30  31
ENDBRANCH   4  30
TORSDOF 16
ENDMDL
MODEL 9
REMARK VINA RESULT:      -8.7      2.307      3.274
REMARK SMILES O=C(/C=C/c1ccc(O)c(O)c1)O[C@@H]1[C@H](O)C[C@@](O)(C(=O)O)C[C@H]1OC(=O)/C=C/c1ccc(O)c(O)c1
REMARK SMILES IDX 17 1 15 2 14 3 24 4 23 5 18 6 16 7 19 9 20 11 21 12 22 13
REMARK SMILES IDX 13 15 2 16 1 17 3 18 4 19 5 20 12 21 6 22 10 23 7 24 8 25
REMARK SMILES IDX 11 26 9 28 25 30 26 31 27 32 28 33 29 34 30 35 37 36 31 37
REMARK SMILES IDX 35 38 32 39 33 40 36 41 34 43
REMARK H PARENT 16 8 19 10 22 14 11 27 9 29 36 42 34 44
ROOT
ATOM      1  C   UNL     1      -8.001  -1.263 -22.247  1.00  0.00     0.083 C 
ATOM      2  C   UNL     1      -7.382  -0.916 -23.599  1.00  0.00     0.162 C 
ATOM      3  C   UNL     1      -8.446  -0.884 -24.709  1.00  0.00     0.246 C 
ATOM      4  C   UNL     1      -9.204  -2.225 -24.792  1.00  0.00     0.223 C 
ATOM      5  C   UNL     1      -9.804  -2.601 -23.434  1.00  0.00     0.097 C 
ATOM      6  C   UNL     1      -8.765  -2.594 -22.312  1.00  0.00     0.168 C 
ENDROOT
BRANCH   2   7
ATOM      7  O   UNL     1      -6.396  -1.919 -23.891  1.00  0.00    -0.389 OA
ATOM      8  H   UNL     1      -6.056  -2.231 -23.027  1.00  0.00     0.211 HD
ENDBRANCH   2   7
BRANCH   6   9
ATOM      9  O   UNL     1      -7.853  -3.694 -22.517  1.00  0.00    -0.378 OA
ATOM     10  H   UNL     1      -8.269  -4.294 -23.180  1.00  0.00     0.212 HD
ENDBRANCH   6   9
BRANCH   6  11
ATOM     11  C   UNL     1      -9.462  -2.837 -20.966  1.00  0.00     0.335 C 
ATOM     12  O   UNL     1     -10.289  -2.095 -20.459  1.00  0.00    -0.249 OA
BRANCH  11  13
ATOM     13  O   UNL     1      -9.053  -3.999 -20.396  1.00  0.00    -0.479 OA
ATOM     14  H   UNL     1      -9.623  -4.717 -20.769  1.00  0.00     0.296 HD
ENDBRANCH  11  13
ENDBRANCH   6  11
BRANCH   3  15
ATOM     15  O   UNL     1      -7.790  -0.650 -25.976  1.00  0.00    -0.452 OA
BRANCH  15  16
ATOM     16  C   UNL     1      -7.832   0.621 -26.438  1.00  0.00     0.331 C 
ATOM     17  O   UNL     1      -8.687   1.450 -26.184  1.00  0.00    -0.247 OA
BRANCH  16  18
ATOM     18  C   UNL     1      -6.654   0.830 -27.301  1.00  0.00     0.094 C 
ATOM     19  C   UNL     1      -6.058  -0.222 -27.883  1.00  0.00     0.016 C 
BRANCH  19  20
ATOM     20  C   UNL     1      -4.884  -0.120 -28.762  1.00  0.00    -0.021 A 
ATOM     21  C   UNL     1      -5.029   0.518 -30.004  1.00  0.00     0.058 A 
ATOM     22  C   UNL     1      -3.643  -0.686 -28.423  1.00  0.00     0.012 A 
ATOM     23  C   UNL     1      -3.940   0.605 -30.867  1.00  0.00     0.157 A 
ATOM     24  C   UNL     1      -2.554  -0.593 -29.296  1.00  0.00     0.051 A 
ATOM     25  C   UNL     1      -2.713   0.054 -30.510  1.00  0.00     0.157 A 
BRANCH  23  26
ATOM     26  O   UNL     1      -4.028   1.225 -32.084  1.00  0.00    -0.504 OA
ATOM     27  H   UNL     1      -4.858   1.732 -32.109  1.00  0.00     0.293 HD
ENDBRANCH  23  26
BRANCH  25  28
ATOM     28  O   UNL     1      -1.651   0.144 -31.363  1.00  0.00    -0.504 OA
ATOM     29  H   UNL     1      -0.943  -0.373 -30.930  1.00  0.00     0.293 HD
ENDBRANCH  25  28
ENDBRANCH  19  20
ENDBRANCH  16  18
ENDBRANCH  15  16
ENDBRANCH   3  15
BRANCH   4  30
ATOM     30  O   UNL     1     -10.314  -2.093 -25.712  1.00  0.00    -0.455 OA
BRANCH  30  31
ATOM     31  C   UNL     1     -10.458  -3.069 -26.640  1.00  0.00     0.331 C 
ATOM     32  O   UNL     1     -10.892  -4.195 -26.446  1.00  0.00    -0.247 OA
BRANCH  31  33
ATOM     33  C   UNL     1     -10.012  -2.626 -27.976  1.00  0.00     0.094 C 
ATOM     34  C   UNL     1     -10.168  -1.381 -28.454  1.00  0.00     0.016 C 
BRANCH  34  35
ATOM     35  C   UNL     1      -9.697  -0.964 -29.782  1.00  0.00    -0.021 A 
ATOM     36  C   UNL     1     -10.542  -0.183 -30.585  1.00  0.00     0.058 A 
ATOM     37  C   UNL     1      -8.448  -1.368 -30.287  1.00  0.00     0.012 A 
ATOM     38  C   UNL     1     -10.122   0.202 -31.855  1.00  0.00     0.157 A 
ATOM     39  C   UNL     1      -8.037  -0.978 -31.564  1.00  0.00     0.051 A 
ATOM     40  C   UNL     1      -8.877  -0.193 -32.336  1.00  0.00     0.157 A 
BRANCH  38  41
ATOM     41  O   UNL     1     -10.903   0.972 -32.673  1.00  0.00    -0.504 OA
ATOM     42  H   UNL     1     -11.819   0.933 -32.349  1.00  0.00     0.293 HD
ENDBRANCH  38  41
BRANCH  40  43
ATOM     43  O   UNL     1      -8.474   0.188 -33.583  1.00  0.00    -0.504 OA
ATOM     44  H   UNL     1      -9.233   0.688 -33.945  1.00  0.00     0.293 HD
ENDBRANCH  40  43
ENDBRANCH  34  35
ENDBRANCH  31  33
ENDBRANCH  30  31
ENDBRANCH   4  30
TORSDOF 16
ENDMDL
MODEL 10
REMARK VINA RESULT:      -8.3      2.988      8.166
REMARK SMILES O=C(/C=C/c1ccc(O)c(O)c1)O[C@@H]1[C@H](O)C[C@@](O)(C(=O)O)C[C@H]1OC(=O)/C=C/c1ccc(O)c(O)c1
REMARK SMILES IDX 17 1 15 2 14 3 24 4 23 5 18 6 16 7 19 9 20 11 21 12 22 13
REMARK SMILES IDX 13 15 2 16 1 17 3 18 4 19 5 20 12 21 6 22 10 23 7 24 8 25
REMARK SMILES IDX 11 26 9 28 25 30 26 31 27 32 28 33 29 34 30 35 37 36 31 37
REMARK SMILES IDX 35 38 32 39 33 40 36 41 34 43
REMARK H PARENT 16 8 19 10 22 14 11 27 9 29 36 42 34 44
ROOT
ATOM      1  C   UNL     1      -8.317  -0.234 -32.701  1.00  0.00     0.083 C 
ATOM      2  C   UNL     1      -7.030  -0.312 -31.885  1.00  0.00     0.162 C 
ATOM      3  C   UNL     1      -7.325  -0.576 -30.398  1.00  0.00     0.246 C 
ATOM      4  C   UNL     1      -8.267   0.500 -29.819  1.00  0.00     0.223 C 
ATOM      5  C   UNL     1      -9.550   0.610 -30.648  1.00  0.00     0.097 C 
ATOM      6  C   UNL     1      -9.270   0.829 -32.135  1.00  0.00     0.168 C 
ENDROOT
BRANCH   2   7
ATOM      7  O   UNL     1      -6.348   0.945 -32.035  1.00  0.00    -0.389 OA
ATOM      8  H   UNL     1      -6.523   1.245 -32.950  1.00  0.00     0.211 HD
ENDBRANCH   2   7
BRANCH   6   9
ATOM      9  O   UNL     1      -8.720   2.151 -32.314  1.00  0.00    -0.378 OA
ATOM     10  H   UNL     1      -9.019   2.695 -31.547  1.00  0.00     0.212 HD
ENDBRANCH   6   9
BRANCH   6  11
ATOM     11  C   UNL     1     -10.590   0.785 -32.917  1.00  0.00     0.335 C 
ATOM     12  O   UNL     1     -11.094  -0.221 -33.391  1.00  0.00    -0.249 OA
BRANCH  11  13
ATOM     13  O   UNL     1     -11.151   2.018 -33.017  1.00  0.00    -0.479 OA
ATOM     14  H   UNL     1     -11.785   1.983 -33.775  1.00  0.00     0.296 HD
ENDBRANCH  11  13
ENDBRANCH   6  11
BRANCH   3  15
ATOM     15  O   UNL     1      -6.081  -0.539 -29.663  1.00  0.00    -0.452 OA
BRANCH  15  16
ATOM     16  C   UNL     1      -5.626  -1.731 -29.212  1.00  0.00     0.331 C 
ATOM     17  O   UNL     1      -4.470  -2.116 -29.238  1.00  0.00    -0.247 OA
BRANCH  16  18
ATOM     18  C   UNL     1      -6.775  -2.482 -28.673  1.00  0.00     0.094 C 
ATOM     19  C   UNL     1      -7.528  -3.228 -29.496  1.00  0.00     0.016 C 
BRANCH  19  20
ATOM     20  C   UNL     1      -8.689  -4.017 -29.060  1.00  0.00    -0.021 A 
ATOM     21  C   UNL     1      -9.401  -4.754 -30.021  1.00  0.00     0.058 A 
ATOM     22  C   UNL     1      -9.140  -4.014 -27.728  1.00  0.00     0.012 A 
ATOM     23  C   UNL     1     -10.519  -5.489 -29.639  1.00  0.00     0.157 A 
ATOM     24  C   UNL     1     -10.265  -4.755 -27.354  1.00  0.00     0.051 A 
ATOM     25  C   UNL     1     -10.943  -5.489 -28.313  1.00  0.00     0.157 A 
BRANCH  23  26
ATOM     26  O   UNL     1     -11.240  -6.230 -30.535  1.00  0.00    -0.504 OA
ATOM     27  H   UNL     1     -12.036  -6.562 -30.086  1.00  0.00     0.293 HD
ENDBRANCH  23  26
BRANCH  25  28
ATOM     28  O   UNL     1     -12.042  -6.211 -27.948  1.00  0.00    -0.504 OA
ATOM     29  H   UNL     1     -11.736  -7.140 -27.945  1.00  0.00     0.293 HD
ENDBRANCH  25  28
ENDBRANCH  19  20
ENDBRANCH  16  18
ENDBRANCH  15  16
ENDBRANCH   3  15
BRANCH   4  30
ATOM     30  O   UNL     1      -8.670   0.116 -28.483  1.00  0.00    -0.455 OA
BRANCH  30  31
ATOM     31  C   UNL     1      -8.027   0.718 -27.454  1.00  0.00     0.331 C 
ATOM     32  O   UNL     1      -7.457   1.799 -27.488  1.00  0.00    -0.247 OA
BRANCH  31  33
ATOM     33  C   UNL     1      -8.075  -0.099 -26.224  1.00  0.00     0.094 C 
ATOM     34  C   UNL     1      -9.103  -0.891 -25.879  1.00  0.00     0.016 C 
BRANCH  34  35
ATOM     35  C   UNL     1      -9.114  -1.708 -24.657  1.00  0.00    -0.021 A 
ATOM     36  C   UNL     1      -7.988  -1.688 -23.820  1.00  0.00     0.058 A 
ATOM     37  C   UNL     1     -10.197  -2.543 -24.334  1.00  0.00     0.012 A 
ATOM     38  C   UNL     1      -7.971  -2.472 -22.670  1.00  0.00     0.157 A 
ATOM     39  C   UNL     1     -10.170  -3.329 -23.178  1.00  0.00     0.051 A 
ATOM     40  C   UNL     1      -9.058  -3.283 -22.355  1.00  0.00     0.157 A 
BRANCH  38  41
ATOM     41  O   UNL     1      -6.904  -2.481 -21.815  1.00  0.00    -0.504 OA
ATOM     42  H   UNL     1      -6.223  -1.883 -22.169  1.00  0.00     0.293 HD
ENDBRANCH  38  41
BRANCH  40  43
ATOM     43  O   UNL     1      -9.032  -4.050 -21.226  1.00  0.00    -0.504 OA
ATOM     44  H   UNL     1      -9.968  -4.285 -21.067  1.00  0.00     0.293 HD
ENDBRANCH  40  43
ENDBRANCH  34  35
ENDBRANCH  31  33
ENDBRANCH  30  31
ENDBRANCH   4  30
TORSDOF 16
ENDMDL
