MODEL 1
REMARK VINA RESULT:      -8.4      0.000      0.000
REMARK SMILES O=C(/C=C/c1ccc(O)c(O)c1)O[C@@H]1C[C@](O)(C(=O)O)C[C@@H](O)[C@H]1O
REMARK SMILES IDX 2 1 1 2 13 3 14 4 21 5 22 6 16 7 24 8 15 9 23 10 17 12 18 14
REMARK SMILES IDX 19 15 20 16 25 18 3 20 4 21 5 22 12 23 6 24 10 25 7 26 8 27
REMARK SMILES IDX 11 28 9 30
REMARK H PARENT 23 11 17 13 20 17 25 19 11 29 9 31
ROOT
ATOM      1  C   UNL     1      -5.026   3.037 -30.341  1.00  0.00     0.331 C 
ATOM      2  O   UNL     1      -4.879   4.245 -30.467  1.00  0.00    -0.247 OA
ENDROOT
BRANCH   1   3
ATOM      3  O   UNL     1      -4.069   2.159 -29.959  1.00  0.00    -0.456 OA
BRANCH   3   4
ATOM      4  C   UNL     1      -4.535   0.838 -29.611  1.00  0.00     0.211 C 
ATOM      5  C   UNL     1      -4.003  -1.728 -28.204  1.00  0.00     0.082 C 
ATOM      6  C   UNL     1      -3.874  -1.621 -29.723  1.00  0.00     0.150 C 
ATOM      7  C   UNL     1      -4.985  -0.693 -27.640  1.00  0.00     0.167 C 
ATOM      8  C   UNL     1      -3.545  -0.192 -30.185  1.00  0.00     0.184 C 
ATOM      9  C   UNL     1      -4.617   0.722 -28.085  1.00  0.00     0.095 C 
BRANCH   6  10
ATOM     10  O   UNL     1      -5.085  -2.044 -30.371  1.00  0.00    -0.390 OA
ATOM     11  H   UNL     1      -4.979  -2.979 -30.644  1.00  0.00     0.211 HD
ENDBRANCH   6  10
BRANCH   7  12
ATOM     12  O   UNL     1      -6.308  -1.021 -28.122  1.00  0.00    -0.378 OA
ATOM     13  H   UNL     1      -6.353  -0.746 -29.063  1.00  0.00     0.212 HD
ENDBRANCH   7  12
BRANCH   7  14
ATOM     14  C   UNL     1      -4.988  -0.801 -26.107  1.00  0.00     0.335 C 
ATOM     15  O   UNL     1      -5.412  -1.752 -25.471  1.00  0.00    -0.249 OA
BRANCH  14  16
ATOM     16  O   UNL     1      -4.474   0.313 -25.527  1.00  0.00    -0.479 OA
ATOM     17  H   UNL     1      -4.660   1.096 -26.093  1.00  0.00     0.296 HD
ENDBRANCH  14  16
ENDBRANCH   7  14
BRANCH   8  18
ATOM     18  O   UNL     1      -3.587  -0.152 -31.618  1.00  0.00    -0.387 OA
ATOM     19  H   UNL     1      -4.034   0.689 -31.849  1.00  0.00     0.211 HD
ENDBRANCH   8  18
ENDBRANCH   3   4
ENDBRANCH   1   3
BRANCH   1  20
ATOM     20  C   UNL     1      -6.305   2.365 -30.646  1.00  0.00     0.094 C 
ATOM     21  C   UNL     1      -6.721   2.063 -31.887  1.00  0.00     0.016 C 
BRANCH  21  22
ATOM     22  C   UNL     1      -7.992   1.384 -32.168  1.00  0.00    -0.021 A 
ATOM     23  C   UNL     1      -8.931   1.119 -31.157  1.00  0.00     0.058 A 
ATOM     24  C   UNL     1      -8.295   1.044 -33.495  1.00  0.00     0.012 A 
ATOM     25  C   UNL     1     -10.135   0.503 -31.485  1.00  0.00     0.157 A 
ATOM     26  C   UNL     1      -9.506   0.422 -33.814  1.00  0.00     0.051 A 
ATOM     27  C   UNL     1     -10.415   0.155 -32.803  1.00  0.00     0.157 A 
BRANCH  25  28
ATOM     28  O   UNL     1     -11.084   0.221 -30.540  1.00  0.00    -0.504 OA
ATOM     29  H   UNL     1     -10.633   0.053 -29.695  1.00  0.00     0.293 HD
ENDBRANCH  25  28
BRANCH  27  30
ATOM     30  O   UNL     1     -11.599  -0.448 -33.113  1.00  0.00    -0.504 OA
ATOM     31  H   UNL     1     -12.255  -0.017 -32.529  1.00  0.00     0.293 HD
ENDBRANCH  27  30
ENDBRANCH  21  22
ENDBRANCH   1  20
TORSDOF 11
ENDMDL
MODEL 2
REMARK VINA RESULT:      -8.1      1.711      4.168
REMARK SMILES O=C(/C=C/c1ccc(O)c(O)c1)O[C@@H]1C[C@](O)(C(=O)O)C[C@@H](O)[C@H]1O
REMARK SMILES IDX 2 1 1 2 13 3 14 4 21 5 22 6 16 7 24 8 15 9 23 10 17 12 18 14
REMARK SMILES IDX 19 15 20 16 25 18 3 20 4 21 5 22 12 23 6 24 10 25 7 26 8 27
REMARK SMILES IDX 11 28 9 30
REMARK H PARENT 23 11 17 13 20 17 25 19 11 29 9 31
ROOT
ATOM      1  C   UNL     1      -7.002  -1.136 -27.118  1.00  0.00     0.331 C 
ATOM      2  O   UNL     1      -7.508  -1.338 -26.023  1.00  0.00    -0.247 OA
ENDROOT
BRANCH   1   3
ATOM      3  O   UNL     1      -5.746  -1.484 -27.485  1.00  0.00    -0.456 OA
BRANCH   3   4
ATOM      4  C   UNL     1      -4.918  -0.409 -27.977  1.00  0.00     0.211 C 
ATOM      5  C   UNL     1      -2.200   0.525 -28.745  1.00  0.00     0.082 C 
ATOM      6  C   UNL     1      -2.827   0.938 -27.414  1.00  0.00     0.150 C 
ATOM      7  C   UNL     1      -3.264   0.198 -29.801  1.00  0.00     0.167 C 
ATOM      8  C   UNL     1      -3.857  -0.086 -26.908  1.00  0.00     0.184 C 
ATOM      9  C   UNL     1      -4.254  -0.846 -29.287  1.00  0.00     0.095 C 
BRANCH   6  10
ATOM     10  O   UNL     1      -3.471   2.217 -27.526  1.00  0.00    -0.390 OA
ATOM     11  H   UNL     1      -4.229   2.129 -28.141  1.00  0.00     0.211 HD
ENDBRANCH   6  10
BRANCH   7  12
ATOM     12  O   UNL     1      -3.971   1.418 -30.117  1.00  0.00    -0.378 OA
ATOM     13  H   UNL     1      -3.322   2.153 -30.070  1.00  0.00     0.212 HD
ENDBRANCH   7  12
BRANCH   7  14
ATOM     14  C   UNL     1      -2.558  -0.297 -31.073  1.00  0.00     0.335 C 
ATOM     15  O   UNL     1      -3.019  -1.103 -31.864  1.00  0.00    -0.249 OA
BRANCH  14  16
ATOM     16  O   UNL     1      -1.328   0.259 -31.210  1.00  0.00    -0.479 OA
ATOM     17  H   UNL     1      -0.729  -0.373 -31.670  1.00  0.00     0.296 HD
ENDBRANCH  14  16
ENDBRANCH   7  14
BRANCH   8  18
ATOM     18  O   UNL     1      -4.498   0.447 -25.740  1.00  0.00    -0.387 OA
ATOM     19  H   UNL     1      -4.333  -0.202 -25.025  1.00  0.00     0.211 HD
ENDBRANCH   8  18
ENDBRANCH   3   4
ENDBRANCH   1   3
BRANCH   1  20
ATOM     20  C   UNL     1      -7.718  -0.424 -28.196  1.00  0.00     0.094 C 
ATOM     21  C   UNL     1      -8.114  -0.996 -29.343  1.00  0.00     0.016 C 
BRANCH  21  22
ATOM     22  C   UNL     1      -8.836  -0.272 -30.397  1.00  0.00    -0.021 A 
ATOM     23  C   UNL     1      -9.948  -0.828 -31.051  1.00  0.00     0.058 A 
ATOM     24  C   UNL     1      -8.433   1.034 -30.715  1.00  0.00     0.012 A 
ATOM     25  C   UNL     1     -10.616  -0.084 -32.020  1.00  0.00     0.157 A 
ATOM     26  C   UNL     1      -9.109   1.773 -31.692  1.00  0.00     0.051 A 
ATOM     27  C   UNL     1     -10.195   1.203 -32.337  1.00  0.00     0.157 A 
BRANCH  25  28
ATOM     28  O   UNL     1     -11.704  -0.578 -32.687  1.00  0.00    -0.504 OA
ATOM     29  H   UNL     1     -11.573  -0.428 -33.639  1.00  0.00     0.293 HD
ENDBRANCH  25  28
BRANCH  27  30
ATOM     30  O   UNL     1     -10.858   1.924 -33.288  1.00  0.00    -0.504 OA
ATOM     31  H   UNL     1     -10.226   2.624 -33.549  1.00  0.00     0.293 HD
ENDBRANCH  27  30
ENDBRANCH  21  22
ENDBRANCH   1  20
TORSDOF 11
ENDMDL
MODEL 3
REMARK VINA RESULT:      -7.9      4.105      6.546
REMARK SMILES O=C(/C=C/c1ccc(O)c(O)c1)O[C@@H]1C[C@](O)(C(=O)O)C[C@@H](O)[C@H]1O
REMARK SMILES IDX 2 1 1 2 13 3 14 4 21 5 22 6 16 7 24 8 15 9 23 10 17 12 18 14
REMARK SMILES IDX 19 15 20 16 25 18 3 20 4 21 5 22 12 23 6 24 10 25 7 26 8 27
REMARK SMILES IDX 11 28 9 30
REMARK H PARENT 23 11 17 13 20 17 25 19 11 29 9 31
ROOT
ATOM      1  C   UNL     1      -6.147  -2.097 -29.688  1.00  0.00     0.331 C 
ATOM      2  O   UNL     1      -5.102  -1.872 -29.092  1.00  0.00    -0.247 OA
ENDROOT
BRANCH   1   3
ATOM      3  O   UNL     1      -6.434  -1.711 -30.953  1.00  0.00    -0.456 OA
BRANCH   3   4
ATOM      4  C   UNL     1      -7.041  -0.409 -31.088  1.00  0.00     0.211 C 
ATOM      5  C   UNL     1      -7.928   1.779 -32.897  1.00  0.00     0.082 C 
ATOM      6  C   UNL     1      -6.640   1.903 -32.084  1.00  0.00     0.150 C 
ATOM      7  C   UNL     1      -8.934   0.831 -32.231  1.00  0.00     0.167 C 
ATOM      8  C   UNL     1      -6.022   0.535 -31.752  1.00  0.00     0.184 C 
ATOM      9  C   UNL     1      -8.307  -0.532 -31.943  1.00  0.00     0.095 C 
BRANCH   6  10
ATOM     10  O   UNL     1      -6.876   2.609 -30.855  1.00  0.00    -0.390 OA
ATOM     11  H   UNL     1      -7.673   2.231 -30.430  1.00  0.00     0.211 HD
ENDBRANCH   6  10
BRANCH   7  12
ATOM     12  O   UNL     1      -9.366   1.435 -30.991  1.00  0.00    -0.378 OA
ATOM     13  H   UNL     1      -8.597   1.434 -30.382  1.00  0.00     0.212 HD
ENDBRANCH   7  12
BRANCH   7  14
ATOM     14  C   UNL     1     -10.157   0.687 -33.151  1.00  0.00     0.335 C 
ATOM     15  O   UNL     1     -10.353  -0.241 -33.918  1.00  0.00    -0.249 OA
BRANCH  14  16
ATOM     16  O   UNL     1     -11.002   1.741 -33.028  1.00  0.00    -0.479 OA
ATOM     17  H   UNL     1     -11.888   1.422 -32.740  1.00  0.00     0.296 HD
ENDBRANCH  14  16
ENDBRANCH   7  14
BRANCH   8  18
ATOM     18  O   UNL     1      -4.908   0.737 -30.871  1.00  0.00    -0.387 OA
ATOM     19  H   UNL     1      -5.169   1.469 -30.274  1.00  0.00     0.211 HD
ENDBRANCH   8  18
ENDBRANCH   3   4
ENDBRANCH   1   3
BRANCH   1  20
ATOM     20  C   UNL     1      -7.276  -2.807 -29.054  1.00  0.00     0.094 C 
ATOM     21  C   UNL     1      -8.103  -3.641 -29.706  1.00  0.00     0.016 C 
BRANCH  21  22
ATOM     22  C   UNL     1      -9.213  -4.346 -29.054  1.00  0.00    -0.021 A 
ATOM     23  C   UNL     1      -9.653  -4.007 -27.764  1.00  0.00     0.058 A 
ATOM     24  C   UNL     1      -9.888  -5.348 -29.769  1.00  0.00     0.012 A 
ATOM     25  C   UNL     1     -10.732  -4.686 -27.207  1.00  0.00     0.157 A 
ATOM     26  C   UNL     1     -10.970  -6.027 -29.201  1.00  0.00     0.051 A 
ATOM     27  C   UNL     1     -11.380  -5.689 -27.921  1.00  0.00     0.157 A 
BRANCH  25  28
ATOM     28  O   UNL     1     -11.200  -4.397 -25.954  1.00  0.00    -0.504 OA
ATOM     29  H   UNL     1     -11.017  -5.157 -25.376  1.00  0.00     0.293 HD
ENDBRANCH  25  28
BRANCH  27  30
ATOM     30  O   UNL     1     -12.439  -6.348 -27.366  1.00  0.00    -0.504 OA
ATOM     31  H   UNL     1     -12.818  -6.868 -28.102  1.00  0.00     0.293 HD
ENDBRANCH  27  30
ENDBRANCH  21  22
ENDBRANCH   1  20
TORSDOF 11
ENDMDL
MODEL 4
REMARK VINA RESULT:      -7.8      5.540      7.267
REMARK SMILES O=C(/C=C/c1ccc(O)c(O)c1)O[C@@H]1C[C@](O)(C(=O)O)C[C@@H](O)[C@H]1O
REMARK SMILES IDX 2 1 1 2 13 3 14 4 21 5 22 6 16 7 24 8 15 9 23 10 17 12 18 14
REMARK SMILES IDX 19 15 20 16 25 18 3 20 4 21 5 22 12 23 6 24 10 25 7 26 8 27
REMARK SMILES IDX 11 28 9 30
REMARK H PARENT 23 11 17 13 20 17 25 19 11 29 9 31
ROOT
ATOM      1  C   UNL     1      -9.789  -4.929 -29.758  1.00  0.00     0.331 C 
ATOM      2  O   UNL     1     -10.332  -5.837 -30.372  1.00  0.00    -0.247 OA
ENDROOT
BRANCH   1   3
ATOM      3  O   UNL     1      -9.558  -4.902 -28.424  1.00  0.00    -0.456 OA
BRANCH   3   4
ATOM      4  C   UNL     1     -10.724  -4.725 -27.591  1.00  0.00     0.211 C 
ATOM      5  C   UNL     1     -11.886  -4.744 -24.853  1.00  0.00     0.082 C 
ATOM      6  C   UNL     1     -12.127  -5.903 -25.819  1.00  0.00     0.150 C 
ATOM      7  C   UNL     1     -11.604  -3.431 -25.596  1.00  0.00     0.167 C 
ATOM      8  C   UNL     1     -10.999  -6.049 -26.855  1.00  0.00     0.184 C 
ATOM      9  C   UNL     1     -10.458  -3.592 -26.593  1.00  0.00     0.095 C 
BRANCH   6  10
ATOM     10  O   UNL     1     -13.371  -5.738 -26.518  1.00  0.00    -0.390 OA
ATOM     11  H   UNL     1     -13.246  -5.062 -27.216  1.00  0.00     0.211 HD
ENDBRANCH   6  10
BRANCH   7  12
ATOM     12  O   UNL     1     -12.807  -3.048 -26.301  1.00  0.00    -0.378 OA
ATOM     13  H   UNL     1     -13.256  -3.874 -26.583  1.00  0.00     0.212 HD
ENDBRANCH   7  12
BRANCH   7  14
ATOM     14  C   UNL     1     -11.281  -2.341 -24.562  1.00  0.00     0.335 C 
ATOM     15  O   UNL     1     -10.961  -1.194 -24.827  1.00  0.00    -0.249 OA
BRANCH  14  16
ATOM     16  O   UNL     1     -11.372  -2.813 -23.293  1.00  0.00    -0.479 OA
ATOM     17  H   UNL     1     -11.458  -2.059 -22.666  1.00  0.00     0.296 HD
ENDBRANCH  14  16
ENDBRANCH   7  14
BRANCH   8  18
ATOM     18  O   UNL     1     -11.375  -7.057 -27.803  1.00  0.00    -0.387 OA
ATOM     19  H   UNL     1     -12.289  -7.319 -27.567  1.00  0.00     0.211 HD
ENDBRANCH   8  18
ENDBRANCH   3   4
ENDBRANCH   1   3
BRANCH   1  20
ATOM     20  C   UNL     1      -9.342  -3.688 -30.422  1.00  0.00     0.094 C 
ATOM     21  C   UNL     1     -10.163  -2.688 -30.782  1.00  0.00     0.016 C 
BRANCH  21  22
ATOM     22  C   UNL     1      -9.697  -1.456 -31.431  1.00  0.00    -0.021 A 
ATOM     23  C   UNL     1     -10.590  -0.464 -31.869  1.00  0.00     0.058 A 
ATOM     24  C   UNL     1      -8.316  -1.245 -31.564  1.00  0.00     0.012 A 
ATOM     25  C   UNL     1     -10.092   0.699 -32.448  1.00  0.00     0.157 A 
ATOM     26  C   UNL     1      -7.825  -0.074 -32.149  1.00  0.00     0.051 A 
ATOM     27  C   UNL     1      -8.721   0.888 -32.588  1.00  0.00     0.157 A 
BRANCH  25  28
ATOM     28  O   UNL     1     -10.918   1.696 -32.892  1.00  0.00    -0.504 OA
ATOM     29  H   UNL     1     -10.524   2.551 -32.648  1.00  0.00     0.293 HD
ENDBRANCH  25  28
BRANCH  27  30
ATOM     30  O   UNL     1      -8.243   2.033 -33.156  1.00  0.00    -0.504 OA
ATOM     31  H   UNL     1      -8.418   2.728 -32.491  1.00  0.00     0.293 HD
ENDBRANCH  27  30
ENDBRANCH  21  22
ENDBRANCH   1  20
TORSDOF 11
ENDMDL
MODEL 5
REMARK VINA RESULT:      -7.8      3.798      4.568
REMARK SMILES O=C(/C=C/c1ccc(O)c(O)c1)O[C@@H]1C[C@](O)(C(=O)O)C[C@@H](O)[C@H]1O
REMARK SMILES IDX 2 1 1 2 13 3 14 4 21 5 22 6 16 7 24 8 15 9 23 10 17 12 18 14
REMARK SMILES IDX 19 15 20 16 25 18 3 20 4 21 5 22 12 23 6 24 10 25 7 26 8 27
REMARK SMILES IDX 11 28 9 30
REMARK H PARENT 23 11 17 13 20 17 25 19 11 29 9 31
ROOT
ATOM      1  C   UNL     1      -7.415  -0.385 -30.642  1.00  0.00     0.331 C 
ATOM      2  O   UNL     1      -7.073  -0.346 -31.816  1.00  0.00    -0.247 OA
ENDROOT
BRANCH   1   3
ATOM      3  O   UNL     1      -6.924   0.394 -29.650  1.00  0.00    -0.456 OA
BRANCH   3   4
ATOM      4  C   UNL     1      -5.811  -0.157 -28.915  1.00  0.00     0.211 C 
ATOM      5  C   UNL     1      -3.761   0.223 -26.792  1.00  0.00     0.082 C 
ATOM      6  C   UNL     1      -3.391   0.323 -28.272  1.00  0.00     0.150 C 
ATOM      7  C   UNL     1      -4.990  -0.669 -26.571  1.00  0.00     0.167 C 
ATOM      8  C   UNL     1      -4.583   0.742 -29.148  1.00  0.00     0.184 C 
ATOM      9  C   UNL     1      -6.170  -0.211 -27.426  1.00  0.00     0.095 C 
BRANCH   6  10
ATOM     10  O   UNL     1      -2.883  -0.930 -28.758  1.00  0.00    -0.390 OA
ATOM     11  H   UNL     1      -1.967  -0.791 -29.074  1.00  0.00     0.211 HD
ENDBRANCH   6  10
BRANCH   7  12
ATOM     12  O   UNL     1      -4.632  -2.023 -26.928  1.00  0.00    -0.378 OA
ATOM     13  H   UNL     1      -5.172  -2.625 -26.373  1.00  0.00     0.212 HD
ENDBRANCH   7  12
BRANCH   7  14
ATOM     14  C   UNL     1      -5.353  -0.643 -25.077  1.00  0.00     0.335 C 
ATOM     15  O   UNL     1      -6.074  -1.450 -24.516  1.00  0.00    -0.249 OA
BRANCH  14  16
ATOM     16  O   UNL     1      -4.787   0.416 -24.444  1.00  0.00    -0.479 OA
ATOM     17  H   UNL     1      -3.809   0.304 -24.423  1.00  0.00     0.296 HD
ENDBRANCH  14  16
ENDBRANCH   7  14
BRANCH   8  18
ATOM     18  O   UNL     1      -4.188   0.669 -30.525  1.00  0.00    -0.387 OA
ATOM     19  H   UNL     1      -4.911   0.193 -30.985  1.00  0.00     0.211 HD
ENDBRANCH   8  18
ENDBRANCH   3   4
ENDBRANCH   1   3
BRANCH   1  20
ATOM     20  C   UNL     1      -8.412  -1.354 -30.145  1.00  0.00     0.094 C 
ATOM     21  C   UNL     1      -8.190  -2.673 -30.033  1.00  0.00     0.016 C 
BRANCH  21  22
ATOM     22  C   UNL     1      -9.192  -3.619 -29.525  1.00  0.00    -0.021 A 
ATOM     23  C   UNL     1      -9.863  -4.516 -30.372  1.00  0.00     0.058 A 
ATOM     24  C   UNL     1      -9.440  -3.661 -28.144  1.00  0.00     0.012 A 
ATOM     25  C   UNL     1     -10.779  -5.414 -29.832  1.00  0.00     0.157 A 
ATOM     26  C   UNL     1     -10.364  -4.565 -27.611  1.00  0.00     0.051 A 
ATOM     27  C   UNL     1     -11.027  -5.433 -28.464  1.00  0.00     0.157 A 
BRANCH  25  28
ATOM     28  O   UNL     1     -11.460  -6.308 -30.613  1.00  0.00    -0.504 OA
ATOM     29  H   UNL     1     -11.426  -5.999 -31.533  1.00  0.00     0.293 HD
ENDBRANCH  25  28
BRANCH  27  30
ATOM     30  O   UNL     1     -11.927  -6.318 -27.944  1.00  0.00    -0.504 OA
ATOM     31  H   UNL     1     -11.468  -6.712 -27.176  1.00  0.00     0.293 HD
ENDBRANCH  27  30
ENDBRANCH  21  22
ENDBRANCH   1  20
TORSDOF 11
ENDMDL
MODEL 6
REMARK VINA RESULT:      -7.8      4.877      8.036
REMARK SMILES O=C(/C=C/c1ccc(O)c(O)c1)O[C@@H]1C[C@](O)(C(=O)O)C[C@@H](O)[C@H]1O
REMARK SMILES IDX 2 1 1 2 13 3 14 4 21 5 22 6 16 7 24 8 15 9 23 10 17 12 18 14
REMARK SMILES IDX 19 15 20 16 25 18 3 20 4 21 5 22 12 23 6 24 10 25 7 26 8 27
REMARK SMILES IDX 11 28 9 30
REMARK H PARENT 23 11 17 13 20 17 25 19 11 29 9 31
ROOT
ATOM      1  C   UNL     1      -8.091  -0.963 -26.144  1.00  0.00     0.331 C 
ATOM      2  O   UNL     1      -8.162  -0.797 -24.934  1.00  0.00    -0.247 OA
ENDROOT
BRANCH   1   3
ATOM      3  O   UNL     1      -9.024  -1.569 -26.915  1.00  0.00    -0.456 OA
BRANCH   3   4
ATOM      4  C   UNL     1      -9.970  -2.404 -26.213  1.00  0.00     0.211 C 
ATOM      5  C   UNL     1     -12.516  -3.940 -26.294  1.00  0.00     0.082 C 
ATOM      6  C   UNL     1     -12.441  -2.575 -25.610  1.00  0.00     0.150 C 
ATOM      7  C   UNL     1     -11.153  -4.645 -26.313  1.00  0.00     0.167 C 
ATOM      8  C   UNL     1     -11.331  -1.685 -26.196  1.00  0.00     0.184 C 
ATOM      9  C   UNL     1     -10.076  -3.754 -26.930  1.00  0.00     0.095 C 
BRANCH   6  10
ATOM     10  O   UNL     1     -12.214  -2.721 -24.199  1.00  0.00    -0.390 OA
ATOM     11  H   UNL     1     -11.252  -2.640 -24.031  1.00  0.00     0.211 HD
ENDBRANCH   6  10
BRANCH   7  12
ATOM     12  O   UNL     1     -10.793  -4.962 -24.950  1.00  0.00    -0.378 OA
ATOM     13  H   UNL     1     -10.155  -4.280 -24.649  1.00  0.00     0.212 HD
ENDBRANCH   7  12
BRANCH   7  14
ATOM     14  C   UNL     1     -11.290  -5.960 -27.096  1.00  0.00     0.335 C 
ATOM     15  O   UNL     1     -10.360  -6.652 -27.476  1.00  0.00    -0.249 OA
BRANCH  14  16
ATOM     16  O   UNL     1     -12.590  -6.262 -27.342  1.00  0.00    -0.479 OA
ATOM     17  H   UNL     1     -12.661  -7.195 -27.646  1.00  0.00     0.296 HD
ENDBRANCH  14  16
ENDBRANCH   7  14
BRANCH   8  18
ATOM     18  O   UNL     1     -11.236  -0.492 -25.405  1.00  0.00    -0.387 OA
ATOM     19  H   UNL     1     -10.771  -0.753 -24.583  1.00  0.00     0.211 HD
ENDBRANCH   8  18
ENDBRANCH   3   4
ENDBRANCH   1   3
BRANCH   1  20
ATOM     20  C   UNL     1      -6.912  -0.542 -26.928  1.00  0.00     0.094 C 
ATOM     21  C   UNL     1      -5.818  -1.299 -27.108  1.00  0.00     0.016 C 
BRANCH  21  22
ATOM     22  C   UNL     1      -4.661  -0.865 -27.902  1.00  0.00    -0.021 A 
ATOM     23  C   UNL     1      -3.651  -0.054 -27.359  1.00  0.00     0.058 A 
ATOM     24  C   UNL     1      -4.538  -1.327 -29.222  1.00  0.00     0.012 A 
ATOM     25  C   UNL     1      -2.559   0.300 -28.146  1.00  0.00     0.157 A 
ATOM     26  C   UNL     1      -3.438  -0.965 -30.005  1.00  0.00     0.051 A 
ATOM     27  C   UNL     1      -2.459  -0.151 -29.458  1.00  0.00     0.157 A 
BRANCH  25  28
ATOM     28  O   UNL     1      -1.549   1.089 -27.668  1.00  0.00    -0.504 OA
ATOM     29  H   UNL     1      -1.677   1.990 -28.009  1.00  0.00     0.293 HD
ENDBRANCH  25  28
BRANCH  27  30
ATOM     30  O   UNL     1      -1.383   0.201 -30.221  1.00  0.00    -0.504 OA
ATOM     31  H   UNL     1      -1.717   0.912 -30.804  1.00  0.00     0.293 HD
ENDBRANCH  27  30
ENDBRANCH  21  22
ENDBRANCH   1  20
TORSDOF 11
ENDMDL
MODEL 7
REMARK VINA RESULT:      -7.8      3.870      4.609
REMARK SMILES O=C(/C=C/c1ccc(O)c(O)c1)O[C@@H]1C[C@](O)(C(=O)O)C[C@@H](O)[C@H]1O
REMARK SMILES IDX 2 1 1 2 13 3 14 4 21 5 22 6 16 7 24 8 15 9 23 10 17 12 18 14
REMARK SMILES IDX 19 15 20 16 25 18 3 20 4 21 5 22 12 23 6 24 10 25 7 26 8 27
REMARK SMILES IDX 11 28 9 30
REMARK H PARENT 23 11 17 13 20 17 25 19 11 29 9 31
ROOT
ATOM      1  C   UNL     1      -7.746  -0.642 -30.972  1.00  0.00     0.331 C 
ATOM      2  O   UNL     1      -7.737  -0.563 -32.193  1.00  0.00    -0.247 OA
ENDROOT
BRANCH   1   3
ATOM      3  O   UNL     1      -6.992   0.100 -30.127  1.00  0.00    -0.456 OA
BRANCH   3   4
ATOM      4  C   UNL     1      -6.005  -0.628 -29.366  1.00  0.00     0.211 C 
ATOM      5  C   UNL     1      -3.782  -0.538 -27.392  1.00  0.00     0.082 C 
ATOM      6  C   UNL     1      -3.503  -0.716 -28.884  1.00  0.00     0.150 C 
ATOM      7  C   UNL     1      -5.177  -1.048 -27.007  1.00  0.00     0.167 C 
ATOM      8  C   UNL     1      -4.610  -0.111 -29.764  1.00  0.00     0.184 C 
ATOM      9  C   UNL     1      -6.261  -0.407 -27.872  1.00  0.00     0.095 C 
BRANCH   6  10
ATOM     10  O   UNL     1      -3.363  -2.107 -29.216  1.00  0.00    -0.390 OA
ATOM     11  H   UNL     1      -3.775  -2.258 -30.092  1.00  0.00     0.211 HD
ENDBRANCH   6  10
BRANCH   7  12
ATOM     12  O   UNL     1      -5.197  -2.481 -27.193  1.00  0.00    -0.378 OA
ATOM     13  H   UNL     1      -5.901  -2.682 -27.846  1.00  0.00     0.212 HD
ENDBRANCH   7  12
BRANCH   7  14
ATOM     14  C   UNL     1      -5.417  -0.750 -25.518  1.00  0.00     0.335 C 
ATOM     15  O   UNL     1      -6.150  -1.390 -24.783  1.00  0.00    -0.249 OA
BRANCH  14  16
ATOM     16  O   UNL     1      -4.723   0.343 -25.110  1.00  0.00    -0.479 OA
ATOM     17  H   UNL     1      -5.235   1.157 -25.322  1.00  0.00     0.296 HD
ENDBRANCH  14  16
ENDBRANCH   7  14
BRANCH   8  18
ATOM     18  O   UNL     1      -4.344  -0.449 -31.132  1.00  0.00    -0.387 OA
ATOM     19  H   UNL     1      -3.809  -1.270 -31.105  1.00  0.00     0.211 HD
ENDBRANCH   8  18
ENDBRANCH   3   4
ENDBRANCH   1   3
BRANCH   1  20
ATOM     20  C   UNL     1      -8.581  -1.625 -30.254  1.00  0.00     0.094 C 
ATOM     21  C   UNL     1      -8.474  -2.955 -30.400  1.00  0.00     0.016 C 
BRANCH  21  22
ATOM     22  C   UNL     1      -9.308  -3.916 -29.666  1.00  0.00    -0.021 A 
ATOM     23  C   UNL     1      -9.299  -3.986 -28.264  1.00  0.00     0.058 A 
ATOM     24  C   UNL     1     -10.178  -4.745 -30.391  1.00  0.00     0.012 A 
ATOM     25  C   UNL     1     -10.134  -4.893 -27.618  1.00  0.00     0.157 A 
ATOM     26  C   UNL     1     -11.011  -5.655 -29.734  1.00  0.00     0.051 A 
ATOM     27  C   UNL     1     -10.979  -5.721 -28.350  1.00  0.00     0.157 A 
BRANCH  25  28
ATOM     28  O   UNL     1     -10.164  -5.003 -26.254  1.00  0.00    -0.504 OA
ATOM     29  H   UNL     1     -10.877  -5.618 -26.013  1.00  0.00     0.293 HD
ENDBRANCH  25  28
BRANCH  27  30
ATOM     30  O   UNL     1     -11.794  -6.606 -27.707  1.00  0.00    -0.504 OA
ATOM     31  H   UNL     1     -11.192  -7.310 -27.391  1.00  0.00     0.293 HD
ENDBRANCH  27  30
ENDBRANCH  21  22
ENDBRANCH   1  20
TORSDOF 11
ENDMDL
MODEL 8
REMARK VINA RESULT:      -7.7      3.672      4.791
REMARK SMILES O=C(/C=C/c1ccc(O)c(O)c1)O[C@@H]1C[C@](O)(C(=O)O)C[C@@H](O)[C@H]1O
REMARK SMILES IDX 2 1 1 2 13 3 14 4 21 5 22 6 16 7 24 8 15 9 23 10 17 12 18 14
REMARK SMILES IDX 19 15 20 16 25 18 3 20 4 21 5 22 12 23 6 24 10 25 7 26 8 27
REMARK SMILES IDX 11 28 9 30
REMARK H PARENT 23 11 17 13 20 17 25 19 11 29 9 31
ROOT
ATOM      1  C   UNL     1      -6.982  -0.326 -31.557  1.00  0.00     0.331 C 
ATOM      2  O   UNL     1      -7.794   0.333 -32.191  1.00  0.00    -0.247 OA
ENDROOT
BRANCH   1   3
ATOM      3  O   UNL     1      -5.638  -0.170 -31.590  1.00  0.00    -0.456 OA
BRANCH   3   4
ATOM      4  C   UNL     1      -5.002   0.056 -30.314  1.00  0.00     0.211 C 
ATOM      5  C   UNL     1      -2.729   1.247 -28.811  1.00  0.00     0.082 C 
ATOM      6  C   UNL     1      -2.789  -0.255 -29.087  1.00  0.00     0.150 C 
ATOM      7  C   UNL     1      -4.126   1.880 -28.786  1.00  0.00     0.167 C 
ATOM      8  C   UNL     1      -3.604  -0.587 -30.349  1.00  0.00     0.184 C 
ATOM      9  C   UNL     1      -4.901   1.564 -30.064  1.00  0.00     0.095 C 
BRANCH   6  10
ATOM     10  O   UNL     1      -3.364  -0.958 -27.973  1.00  0.00    -0.390 OA
ATOM     11  H   UNL     1      -2.637  -1.272 -27.397  1.00  0.00     0.211 HD
ENDBRANCH   6  10
BRANCH   7  12
ATOM     12  O   UNL     1      -4.838   1.348 -27.646  1.00  0.00    -0.378 OA
ATOM     13  H   UNL     1      -5.356   0.576 -27.959  1.00  0.00     0.212 HD
ENDBRANCH   7  12
BRANCH   7  14
ATOM     14  C   UNL     1      -3.975   3.398 -28.598  1.00  0.00     0.335 C 
ATOM     15  O   UNL     1      -2.940   4.025 -28.750  1.00  0.00    -0.249 OA
BRANCH  14  16
ATOM     16  O   UNL     1      -5.143   3.972 -28.215  1.00  0.00    -0.479 OA
ATOM     17  H   UNL     1      -5.727   3.293 -27.806  1.00  0.00     0.296 HD
ENDBRANCH  14  16
ENDBRANCH   7  14
BRANCH   8  18
ATOM     18  O   UNL     1      -3.732  -2.013 -30.449  1.00  0.00    -0.387 OA
ATOM     19  H   UNL     1      -4.451  -2.260 -29.831  1.00  0.00     0.211 HD
ENDBRANCH   8  18
ENDBRANCH   3   4
ENDBRANCH   1   3
BRANCH   1  20
ATOM     20  C   UNL     1      -7.389  -1.442 -30.679  1.00  0.00     0.094 C 
ATOM     21  C   UNL     1      -8.580  -2.059 -30.747  1.00  0.00     0.016 C 
BRANCH  21  22
ATOM     22  C   UNL     1      -8.961  -3.175 -29.872  1.00  0.00    -0.021 A 
ATOM     23  C   UNL     1      -9.317  -2.976 -28.528  1.00  0.00     0.058 A 
ATOM     24  C   UNL     1      -9.024  -4.467 -30.417  1.00  0.00     0.012 A 
ATOM     25  C   UNL     1      -9.702  -4.066 -27.753  1.00  0.00     0.157 A 
ATOM     26  C   UNL     1      -9.410  -5.556 -29.630  1.00  0.00     0.051 A 
ATOM     27  C   UNL     1      -9.744  -5.344 -28.301  1.00  0.00     0.157 A 
BRANCH  25  28
ATOM     28  O   UNL     1     -10.058  -3.928 -26.439  1.00  0.00    -0.504 OA
ATOM     29  H   UNL     1     -10.991  -4.184 -26.346  1.00  0.00     0.293 HD
ENDBRANCH  25  28
BRANCH  27  30
ATOM     30  O   UNL     1     -10.124  -6.405 -27.533  1.00  0.00    -0.504 OA
ATOM     31  H   UNL     1      -9.746  -6.217 -26.651  1.00  0.00     0.293 HD
ENDBRANCH  27  30
ENDBRANCH  21  22
ENDBRANCH   1  20
TORSDOF 11
ENDMDL
MODEL 9
REMARK VINA RESULT:      -7.7      4.762      7.870
REMARK SMILES O=C(/C=C/c1ccc(O)c(O)c1)O[C@@H]1C[C@](O)(C(=O)O)C[C@@H](O)[C@H]1O
REMARK SMILES IDX 2 1 1 2 13 3 14 4 21 5 22 6 16 7 24 8 15 9 23 10 17 12 18 14
REMARK SMILES IDX 19 15 20 16 25 18 3 20 4 21 5 22 12 23 6 24 10 25 7 26 8 27
REMARK SMILES IDX 11 28 9 30
REMARK H PARENT 23 11 17 13 20 17 25 19 11 29 9 31
ROOT
ATOM      1  C   UNL     1      -8.120  -3.233 -29.325  1.00  0.00     0.331 C 
ATOM      2  O   UNL     1      -8.032  -4.171 -30.104  1.00  0.00    -0.247 OA
ENDROOT
BRANCH   1   3
ATOM      3  O   UNL     1      -9.270  -2.738 -28.810  1.00  0.00    -0.456 OA
BRANCH   3   4
ATOM      4  C   UNL     1      -9.589  -3.164 -27.468  1.00  0.00     0.211 C 
ATOM      5  C   UNL     1     -11.626  -3.361 -25.309  1.00  0.00     0.082 C 
ATOM      6  C   UNL     1     -10.521  -2.307 -25.255  1.00  0.00     0.150 C 
ATOM      7  C   UNL     1     -11.205  -4.587 -26.130  1.00  0.00     0.167 C 
ATOM      8  C   UNL     1     -10.005  -1.925 -26.653  1.00  0.00     0.184 C 
ATOM      9  C   UNL     1     -10.730  -4.186 -27.525  1.00  0.00     0.095 C 
BRANCH   6  10
ATOM     10  O   UNL     1      -9.411  -2.768 -24.468  1.00  0.00    -0.390 OA
ATOM     11  H   UNL     1      -9.389  -2.254 -23.634  1.00  0.00     0.211 HD
ENDBRANCH   6  10
BRANCH   7  12
ATOM     12  O   UNL     1     -10.130  -5.250 -25.427  1.00  0.00    -0.378 OA
ATOM     13  H   UNL     1     -10.324  -6.212 -25.435  1.00  0.00     0.212 HD
ENDBRANCH   7  12
BRANCH   7  14
ATOM     14  C   UNL     1     -12.397  -5.555 -26.215  1.00  0.00     0.335 C 
ATOM     15  O   UNL     1     -13.229  -5.723 -25.339  1.00  0.00    -0.249 OA
BRANCH  14  16
ATOM     16  O   UNL     1     -12.408  -6.231 -27.391  1.00  0.00    -0.479 OA
ATOM     17  H   UNL     1     -12.657  -7.170 -27.230  1.00  0.00     0.296 HD
ENDBRANCH  14  16
ENDBRANCH   7  14
BRANCH   8  18
ATOM     18  O   UNL     1      -8.880  -1.048 -26.503  1.00  0.00    -0.387 OA
ATOM     19  H   UNL     1      -8.120  -1.625 -26.279  1.00  0.00     0.211 HD
ENDBRANCH   8  18
ENDBRANCH   3   4
ENDBRANCH   1   3
BRANCH   1  20
ATOM     20  C   UNL     1      -6.937  -2.475 -28.870  1.00  0.00     0.094 C 
ATOM     21  C   UNL     1      -5.912  -2.130 -29.665  1.00  0.00     0.016 C 
BRANCH  21  22
ATOM     22  C   UNL     1      -4.749  -1.365 -29.196  1.00  0.00    -0.021 A 
ATOM     23  C   UNL     1      -3.706  -0.996 -30.061  1.00  0.00     0.058 A 
ATOM     24  C   UNL     1      -4.714  -0.945 -27.857  1.00  0.00     0.012 A 
ATOM     25  C   UNL     1      -2.644  -0.242 -29.571  1.00  0.00     0.157 A 
ATOM     26  C   UNL     1      -3.642  -0.190 -27.373  1.00  0.00     0.051 A 
ATOM     27  C   UNL     1      -2.614   0.153 -28.237  1.00  0.00     0.157 A 
BRANCH  25  28
ATOM     28  O   UNL     1      -1.602   0.143 -30.369  1.00  0.00    -0.504 OA
ATOM     29  H   UNL     1      -1.001  -0.613 -30.475  1.00  0.00     0.293 HD
ENDBRANCH  25  28
BRANCH  27  30
ATOM     30  O   UNL     1      -1.568   0.893 -27.767  1.00  0.00    -0.504 OA
ATOM     31  H   UNL     1      -0.772   0.414 -28.071  1.00  0.00     0.293 HD
ENDBRANCH  27  30
ENDBRANCH  21  22
ENDBRANCH   1  20
TORSDOF 11
ENDMDL
MODEL 10
REMARK VINA RESULT:      -7.6      2.745      7.090
REMARK SMILES O=C(/C=C/c1ccc(O)c(O)c1)O[C@@H]1C[C@](O)(C(=O)O)C[C@@H](O)[C@H]1O
REMARK SMILES IDX 2 1 1 2 13 3 14 4 21 5 22 6 16 7 24 8 15 9 23 10 17 12 18 14
REMARK SMILES IDX 19 15 20 16 25 18 3 20 4 21 5 22 12 23 6 24 10 25 7 26 8 27
REMARK SMILES IDX 11 28 9 30
REMARK H PARENT 23 11 17 13 20 17 25 19 11 29 9 31
ROOT
ATOM      1  C   UNL     1      -8.160  -1.272 -26.296  1.00  0.00     0.331 C 
ATOM      2  O   UNL     1      -8.092  -1.399 -25.081  1.00  0.00    -0.247 OA
ENDROOT
BRANCH   1   3
ATOM      3  O   UNL     1      -9.242  -1.548 -27.060  1.00  0.00    -0.456 OA
BRANCH   3   4
ATOM      4  C   UNL     1      -8.985  -1.718 -28.471  1.00  0.00     0.211 C 
ATOM      5  C   UNL     1     -10.068  -2.356 -31.167  1.00  0.00     0.082 C 
ATOM      6  C   UNL     1      -9.262  -3.387 -30.378  1.00  0.00     0.150 C 
ATOM      7  C   UNL     1      -9.705  -0.920 -30.767  1.00  0.00     0.167 C 
ATOM      8  C   UNL     1      -9.349  -3.163 -28.858  1.00  0.00     0.184 C 
ATOM      9  C   UNL     1      -9.833  -0.714 -29.259  1.00  0.00     0.095 C 
BRANCH   6  10
ATOM     10  O   UNL     1      -7.878  -3.361 -30.765  1.00  0.00    -0.390 OA
ATOM     11  H   UNL     1      -7.471  -2.546 -30.404  1.00  0.00     0.211 HD
ENDBRANCH   6  10
BRANCH   7  12
ATOM     12  O   UNL     1      -8.340  -0.674 -31.174  1.00  0.00    -0.378 OA
ATOM     13  H   UNL     1      -8.346   0.115 -31.756  1.00  0.00     0.212 HD
ENDBRANCH   7  12
BRANCH   7  14
ATOM     14  C   UNL     1     -10.620   0.049 -31.532  1.00  0.00     0.335 C 
ATOM     15  O   UNL     1     -10.524   1.265 -31.517  1.00  0.00    -0.249 OA
BRANCH  14  16
ATOM     16  O   UNL     1     -11.581  -0.613 -32.225  1.00  0.00    -0.479 OA
ATOM     17  H   UNL     1     -11.186  -1.394 -32.674  1.00  0.00     0.296 HD
ENDBRANCH  14  16
ENDBRANCH   7  14
BRANCH   8  18
ATOM     18  O   UNL     1      -8.453  -4.076 -28.208  1.00  0.00    -0.387 OA
ATOM     19  H   UNL     1      -8.411  -4.866 -28.786  1.00  0.00     0.211 HD
ENDBRANCH   8  18
ENDBRANCH   3   4
ENDBRANCH   1   3
BRANCH   1  20
ATOM     20  C   UNL     1      -7.009  -0.824 -27.105  1.00  0.00     0.094 C 
ATOM     21  C   UNL     1      -5.818  -1.443 -27.128  1.00  0.00     0.016 C 
BRANCH  21  22
ATOM     22  C   UNL     1      -4.689  -0.988 -27.950  1.00  0.00    -0.021 A 
ATOM     23  C   UNL     1      -3.641  -0.221 -27.412  1.00  0.00     0.058 A 
ATOM     24  C   UNL     1      -4.632  -1.381 -29.296  1.00  0.00     0.012 A 
ATOM     25  C   UNL     1      -2.578   0.155 -28.228  1.00  0.00     0.157 A 
ATOM     26  C   UNL     1      -3.562  -0.997 -30.108  1.00  0.00     0.051 A 
ATOM     27  C   UNL     1      -2.544  -0.229 -29.565  1.00  0.00     0.157 A 
BRANCH  25  28
ATOM     28  O   UNL     1      -1.534   0.901 -27.756  1.00  0.00    -0.504 OA
ATOM     29  H   UNL     1      -1.059   0.376 -27.090  1.00  0.00     0.293 HD
ENDBRANCH  25  28
BRANCH  27  30
ATOM     30  O   UNL     1      -1.497   0.145 -30.357  1.00  0.00    -0.504 OA
ATOM     31  H   UNL     1      -0.771  -0.461 -30.105  1.00  0.00     0.293 HD
ENDBRANCH  27  30
ENDBRANCH  21  22
ENDBRANCH   1  20
TORSDOF 11
ENDMDL
