MODEL 1
REMARK VINA RESULT:      -7.9      0.000      0.000
REMARK SMILES O=C(/C=C/c1ccc(O)c(O)c1)O[C@H](Cc1ccc(O)c(O)c1)C(=O)O
REMARK SMILES IDX 13 1 14 2 15 3 16 4 17 5 18 6 19 7 23 8 21 9 20 10 22 12
REMARK SMILES IDX 24 14 25 15 26 16 2 18 1 19 3 20 4 21 5 22 12 23 6 24 10 25
REMARK SMILES IDX 7 26 8 27 11 28 9 30
REMARK H PARENT 20 11 22 13 26 17 11 29 9 31
ROOT
ATOM      1  O   UNL     1      -8.232  -0.048 -32.386  1.00  0.00    -0.447 OA
ENDROOT
BRANCH   1   2
ATOM      2  C   UNL     1      -9.349   0.504 -31.667  1.00  0.00     0.290 C 
BRANCH   2   3
ATOM      3  C   UNL     1      -9.700  -0.453 -30.516  1.00  0.00     0.093 C 
BRANCH   3   4
ATOM      4  C   UNL     1      -8.507  -0.799 -29.650  1.00  0.00    -0.040 A 
ATOM      5  C   UNL     1      -7.857  -2.036 -29.800  1.00  0.00     0.008 A 
ATOM      6  C   UNL     1      -6.746  -2.363 -29.016  1.00  0.00     0.050 A 
ATOM      7  C   UNL     1      -6.284  -1.447 -28.080  1.00  0.00     0.157 A 
ATOM      8  C   UNL     1      -8.035   0.106 -28.687  1.00  0.00     0.054 A 
ATOM      9  C   UNL     1      -6.926  -0.223 -27.921  1.00  0.00     0.157 A 
BRANCH   7  10
ATOM     10  O   UNL     1      -5.198  -1.704 -27.290  1.00  0.00    -0.504 OA
ATOM     11  H   UNL     1      -5.363  -1.313 -26.414  1.00  0.00     0.293 HD
ENDBRANCH   7  10
BRANCH   9  12
ATOM     12  O   UNL     1      -6.465   0.674 -27.001  1.00  0.00    -0.504 OA
ATOM     13  H   UNL     1      -7.231   0.842 -26.417  1.00  0.00     0.293 HD
ENDBRANCH   9  12
ENDBRANCH   3   4
ENDBRANCH   2   3
BRANCH   2  14
ATOM     14  C   UNL     1     -10.575   0.693 -32.573  1.00  0.00     0.345 C 
ATOM     15  O   UNL     1     -11.301  -0.213 -32.955  1.00  0.00    -0.248 OA
BRANCH  14  16
ATOM     16  O   UNL     1     -10.809   1.981 -32.921  1.00  0.00    -0.478 OA
ATOM     17  H   UNL     1     -11.522   2.095 -33.596  1.00  0.00     0.296 HD
ENDBRANCH  14  16
ENDBRANCH   2  14
ENDBRANCH   1   2
BRANCH   1  18
ATOM     18  C   UNL     1      -7.370   0.863 -32.892  1.00  0.00     0.331 C 
ATOM     19  O   UNL     1      -7.400   1.293 -34.035  1.00  0.00    -0.247 OA
BRANCH  18  20
ATOM     20  C   UNL     1      -6.370   1.196 -31.865  1.00  0.00     0.094 C 
ATOM     21  C   UNL     1      -5.421   0.304 -31.543  1.00  0.00     0.016 C 
BRANCH  21  22
ATOM     22  C   UNL     1      -4.401   0.547 -30.517  1.00  0.00    -0.021 A 
ATOM     23  C   UNL     1      -4.388   1.727 -29.754  1.00  0.00     0.058 A 
ATOM     24  C   UNL     1      -3.455  -0.456 -30.248  1.00  0.00     0.012 A 
ATOM     25  C   UNL     1      -3.428   1.893 -28.762  1.00  0.00     0.157 A 
ATOM     26  C   UNL     1      -2.491  -0.277 -29.252  1.00  0.00     0.051 A 
ATOM     27  C   UNL     1      -2.486   0.898 -28.518  1.00  0.00     0.157 A 
BRANCH  25  28
ATOM     28  O   UNL     1      -3.373   3.020 -27.990  1.00  0.00    -0.504 OA
ATOM     29  H   UNL     1      -2.523   3.027 -27.516  1.00  0.00     0.293 HD
ENDBRANCH  25  28
BRANCH  27  30
ATOM     30  O   UNL     1      -1.549   1.068 -27.540  1.00  0.00    -0.504 OA
ATOM     31  H   UNL     1      -1.123   0.192 -27.453  1.00  0.00     0.293 HD
ENDBRANCH  27  30
ENDBRANCH  21  22
ENDBRANCH  18  20
ENDBRANCH   1  18
TORSDOF 12
ENDMDL
MODEL 2
REMARK VINA RESULT:      -7.8      3.114      7.120
REMARK SMILES O=C(/C=C/c1ccc(O)c(O)c1)O[C@H](Cc1ccc(O)c(O)c1)C(=O)O
REMARK SMILES IDX 13 1 14 2 15 3 16 4 17 5 18 6 19 7 23 8 21 9 20 10 22 12
REMARK SMILES IDX 24 14 25 15 26 16 2 18 1 19 3 20 4 21 5 22 12 23 6 24 10 25
REMARK SMILES IDX 7 26 8 27 11 28 9 30
REMARK H PARENT 20 11 22 13 26 17 11 29 9 31
ROOT
ATOM      1  O   UNL     1      -6.189  -0.655 -30.925  1.00  0.00    -0.447 OA
ENDROOT
BRANCH   1   2
ATOM      2  C   UNL     1      -5.495   0.601 -30.820  1.00  0.00     0.290 C 
BRANCH   2   3
ATOM      3  C   UNL     1      -6.505   1.731 -31.082  1.00  0.00     0.093 C 
BRANCH   3   4
ATOM      4  C   UNL     1      -7.775   1.246 -31.749  1.00  0.00    -0.040 A 
ATOM      5  C   UNL     1      -7.821   1.069 -33.143  1.00  0.00     0.008 A 
ATOM      6  C   UNL     1      -8.984   0.609 -33.770  1.00  0.00     0.050 A 
ATOM      7  C   UNL     1     -10.102   0.323 -32.999  1.00  0.00     0.157 A 
ATOM      8  C   UNL     1      -8.921   0.967 -30.989  1.00  0.00     0.054 A 
ATOM      9  C   UNL     1     -10.066   0.501 -31.619  1.00  0.00     0.157 A 
BRANCH   7  10
ATOM     10  O   UNL     1     -11.265  -0.138 -33.551  1.00  0.00    -0.504 OA
ATOM     11  H   UNL     1     -11.454  -1.014 -33.171  1.00  0.00     0.293 HD
ENDBRANCH   7  10
BRANCH   9  12
ATOM     12  O   UNL     1     -11.169   0.215 -30.866  1.00  0.00    -0.504 OA
ATOM     13  H   UNL     1     -11.917   0.580 -31.378  1.00  0.00     0.293 HD
ENDBRANCH   9  12
ENDBRANCH   3   4
ENDBRANCH   2   3
BRANCH   2  14
ATOM     14  C   UNL     1      -4.338   0.701 -31.825  1.00  0.00     0.345 C 
ATOM     15  O   UNL     1      -4.211   1.595 -32.650  1.00  0.00    -0.248 OA
BRANCH  14  16
ATOM     16  O   UNL     1      -3.431  -0.300 -31.722  1.00  0.00    -0.478 OA
ATOM     17  H   UNL     1      -3.078  -0.617 -32.589  1.00  0.00     0.296 HD
ENDBRANCH  14  16
ENDBRANCH   2  14
ENDBRANCH   1   2
BRANCH   1  18
ATOM     18  C   UNL     1      -5.918  -1.542 -29.941  1.00  0.00     0.331 C 
ATOM     19  O   UNL     1      -4.798  -1.839 -29.556  1.00  0.00    -0.247 OA
BRANCH  18  20
ATOM     20  C   UNL     1      -7.183  -2.123 -29.462  1.00  0.00     0.094 C 
ATOM     21  C   UNL     1      -7.464  -3.409 -29.715  1.00  0.00     0.016 C 
BRANCH  21  22
ATOM     22  C   UNL     1      -8.710  -4.061 -29.294  1.00  0.00    -0.021 A 
ATOM     23  C   UNL     1      -9.481  -4.825 -30.186  1.00  0.00     0.058 A 
ATOM     24  C   UNL     1      -9.104  -3.969 -27.949  1.00  0.00     0.012 A 
ATOM     25  C   UNL     1     -10.631  -5.461 -29.730  1.00  0.00     0.157 A 
ATOM     26  C   UNL     1     -10.264  -4.607 -27.501  1.00  0.00     0.051 A 
ATOM     27  C   UNL     1     -11.018  -5.347 -28.398  1.00  0.00     0.157 A 
BRANCH  25  28
ATOM     28  O   UNL     1     -11.415  -6.218 -30.555  1.00  0.00    -0.504 OA
ATOM     29  H   UNL     1     -11.019  -7.104 -30.626  1.00  0.00     0.293 HD
ENDBRANCH  25  28
BRANCH  27  30
ATOM     30  O   UNL     1     -12.147  -5.977 -27.958  1.00  0.00    -0.504 OA
ATOM     31  H   UNL     1     -12.399  -5.490 -27.148  1.00  0.00     0.293 HD
ENDBRANCH  27  30
ENDBRANCH  21  22
ENDBRANCH  18  20
ENDBRANCH   1  18
TORSDOF 12
ENDMDL
MODEL 3
REMARK VINA RESULT:      -7.8      2.208      6.088
REMARK SMILES O=C(/C=C/c1ccc(O)c(O)c1)O[C@H](Cc1ccc(O)c(O)c1)C(=O)O
REMARK SMILES IDX 13 1 14 2 15 3 16 4 17 5 18 6 19 7 23 8 21 9 20 10 22 12
REMARK SMILES IDX 24 14 25 15 26 16 2 18 1 19 3 20 4 21 5 22 12 23 6 24 10 25
REMARK SMILES IDX 7 26 8 27 11 28 9 30
REMARK H PARENT 20 11 22 13 26 17 11 29 9 31
ROOT
ATOM      1  O   UNL     1      -3.612   1.755 -29.927  1.00  0.00    -0.447 OA
ENDROOT
BRANCH   1   2
ATOM      2  C   UNL     1      -3.667   0.330 -29.740  1.00  0.00     0.290 C 
BRANCH   2   3
ATOM      3  C   UNL     1      -2.926  -0.014 -28.437  1.00  0.00     0.093 C 
BRANCH   3   4
ATOM      4  C   UNL     1      -3.856  -0.463 -27.330  1.00  0.00    -0.040 A 
ATOM      5  C   UNL     1      -4.554  -1.678 -27.439  1.00  0.00     0.008 A 
ATOM      6  C   UNL     1      -5.407  -2.111 -26.418  1.00  0.00     0.050 A 
ATOM      7  C   UNL     1      -5.559  -1.325 -25.284  1.00  0.00     0.157 A 
ATOM      8  C   UNL     1      -4.037   0.326 -26.183  1.00  0.00     0.054 A 
ATOM      9  C   UNL     1      -4.877  -0.117 -25.171  1.00  0.00     0.157 A 
BRANCH   7  10
ATOM     10  O   UNL     1      -6.370  -1.696 -24.248  1.00  0.00    -0.504 OA
ATOM     11  H   UNL     1      -7.174  -2.097 -24.622  1.00  0.00     0.293 HD
ENDBRANCH   7  10
BRANCH   9  12
ATOM     12  O   UNL     1      -5.029   0.650 -24.051  1.00  0.00    -0.504 OA
ATOM     13  H   UNL     1      -5.668   1.342 -24.313  1.00  0.00     0.293 HD
ENDBRANCH   9  12
ENDBRANCH   3   4
ENDBRANCH   2   3
BRANCH   2  14
ATOM     14  C   UNL     1      -3.026  -0.426 -30.913  1.00  0.00     0.345 C 
ATOM     15  O   UNL     1      -3.287  -1.581 -31.220  1.00  0.00    -0.248 OA
BRANCH  14  16
ATOM     16  O   UNL     1      -2.125   0.305 -31.613  1.00  0.00    -0.478 OA
ATOM     17  H   UNL     1      -1.206   0.268 -31.252  1.00  0.00     0.296 HD
ENDBRANCH  14  16
ENDBRANCH   2  14
ENDBRANCH   1   2
BRANCH   1  18
ATOM     18  C   UNL     1      -4.713   2.429 -29.526  1.00  0.00     0.331 C 
ATOM     19  O   UNL     1      -4.706   3.411 -28.800  1.00  0.00    -0.247 OA
BRANCH  18  20
ATOM     20  C   UNL     1      -5.907   1.751 -30.058  1.00  0.00     0.094 C 
ATOM     21  C   UNL     1      -6.392   2.098 -31.259  1.00  0.00     0.016 C 
BRANCH  21  22
ATOM     22  C   UNL     1      -7.589   1.489 -31.852  1.00  0.00    -0.021 A 
ATOM     23  C   UNL     1      -8.744   1.242 -31.092  1.00  0.00     0.058 A 
ATOM     24  C   UNL     1      -7.597   1.209 -33.228  1.00  0.00     0.012 A 
ATOM     25  C   UNL     1      -9.869   0.704 -31.708  1.00  0.00     0.157 A 
ATOM     26  C   UNL     1      -8.731   0.665 -33.837  1.00  0.00     0.051 A 
ATOM     27  C   UNL     1      -9.858   0.416 -33.070  1.00  0.00     0.157 A 
BRANCH  25  28
ATOM     28  O   UNL     1     -11.019   0.446 -31.016  1.00  0.00    -0.504 OA
ATOM     29  H   UNL     1     -11.155  -0.517 -30.993  1.00  0.00     0.293 HD
ENDBRANCH  25  28
BRANCH  27  30
ATOM     30  O   UNL     1     -10.968  -0.109 -33.666  1.00  0.00    -0.504 OA
ATOM     31  H   UNL     1     -11.606  -0.228 -32.934  1.00  0.00     0.293 HD
ENDBRANCH  27  30
ENDBRANCH  21  22
ENDBRANCH  18  20
ENDBRANCH   1  18
TORSDOF 12
ENDMDL
MODEL 4
REMARK VINA RESULT:      -7.5      2.120      6.943
REMARK SMILES O=C(/C=C/c1ccc(O)c(O)c1)O[C@H](Cc1ccc(O)c(O)c1)C(=O)O
REMARK SMILES IDX 13 1 14 2 15 3 16 4 17 5 18 6 19 7 23 8 21 9 20 10 22 12
REMARK SMILES IDX 24 14 25 15 26 16 2 18 1 19 3 20 4 21 5 22 12 23 6 24 10 25
REMARK SMILES IDX 7 26 8 27 11 28 9 30
REMARK H PARENT 20 11 22 13 26 17 11 29 9 31
ROOT
ATOM      1  O   UNL     1      -6.965  -1.882 -27.006  1.00  0.00    -0.447 OA
ENDROOT
BRANCH   1   2
ATOM      2  C   UNL     1      -5.869  -0.995 -26.725  1.00  0.00     0.290 C 
BRANCH   2   3
ATOM      3  C   UNL     1      -4.641  -1.483 -27.513  1.00  0.00     0.093 C 
BRANCH   3   4
ATOM      4  C   UNL     1      -4.431  -0.725 -28.807  1.00  0.00    -0.040 A 
ATOM      5  C   UNL     1      -4.975   0.560 -28.973  1.00  0.00     0.008 A 
ATOM      6  C   UNL     1      -4.778   1.277 -30.158  1.00  0.00     0.050 A 
ATOM      7  C   UNL     1      -4.031   0.705 -31.179  1.00  0.00     0.157 A 
ATOM      8  C   UNL     1      -3.693  -1.293 -29.858  1.00  0.00     0.054 A 
ATOM      9  C   UNL     1      -3.494  -0.571 -31.025  1.00  0.00     0.157 A 
BRANCH   7  10
ATOM     10  O   UNL     1      -3.795   1.357 -32.358  1.00  0.00    -0.504 OA
ATOM     11  H   UNL     1      -3.672   0.687 -33.053  1.00  0.00     0.293 HD
ENDBRANCH   7  10
BRANCH   9  12
ATOM     12  O   UNL     1      -2.758  -1.126 -32.032  1.00  0.00    -0.504 OA
ATOM     13  H   UNL     1      -2.540  -0.375 -32.619  1.00  0.00     0.293 HD
ENDBRANCH   9  12
ENDBRANCH   3   4
ENDBRANCH   2   3
BRANCH   2  14
ATOM     14  C   UNL     1      -5.535  -0.952 -25.227  1.00  0.00     0.345 C 
ATOM     15  O   UNL     1      -4.912  -0.053 -24.680  1.00  0.00    -0.248 OA
BRANCH  14  16
ATOM     16  O   UNL     1      -6.006  -2.013 -24.527  1.00  0.00    -0.478 OA
ATOM     17  H   UNL     1      -5.975  -2.869 -25.021  1.00  0.00     0.296 HD
ENDBRANCH  14  16
ENDBRANCH   2  14
ENDBRANCH   1   2
BRANCH   1  18
ATOM     18  C   UNL     1      -8.191  -1.381 -26.735  1.00  0.00     0.331 C 
ATOM     19  O   UNL     1      -8.852  -1.647 -25.743  1.00  0.00    -0.247 OA
BRANCH  18  20
ATOM     20  C   UNL     1      -8.612  -0.520 -27.853  1.00  0.00     0.094 C 
ATOM     21  C   UNL     1      -8.680  -1.024 -29.094  1.00  0.00     0.016 C 
BRANCH  21  22
ATOM     22  C   UNL     1      -9.068  -0.231 -30.267  1.00  0.00    -0.021 A 
ATOM     23  C   UNL     1     -10.113  -0.633 -31.116  1.00  0.00     0.058 A 
ATOM     24  C   UNL     1      -8.421   0.992 -30.504  1.00  0.00     0.012 A 
ATOM     25  C   UNL     1     -10.474   0.174 -32.190  1.00  0.00     0.157 A 
ATOM     26  C   UNL     1      -8.788   1.794 -31.588  1.00  0.00     0.051 A 
ATOM     27  C   UNL     1      -9.812   1.376 -32.423  1.00  0.00     0.157 A 
BRANCH  25  28
ATOM     28  O   UNL     1     -11.485  -0.169 -33.045  1.00  0.00    -0.504 OA
ATOM     29  H   UNL     1     -12.333  -0.028 -32.589  1.00  0.00     0.293 HD
ENDBRANCH  25  28
BRANCH  27  30
ATOM     30  O   UNL     1     -10.176   2.163 -33.477  1.00  0.00    -0.504 OA
ATOM     31  H   UNL     1     -11.145   2.046 -33.547  1.00  0.00     0.293 HD
ENDBRANCH  27  30
ENDBRANCH  21  22
ENDBRANCH  18  20
ENDBRANCH   1  18
TORSDOF 12
ENDMDL
MODEL 5
REMARK VINA RESULT:      -7.4      1.960      3.501
REMARK SMILES O=C(/C=C/c1ccc(O)c(O)c1)O[C@H](Cc1ccc(O)c(O)c1)C(=O)O
REMARK SMILES IDX 13 1 14 2 15 3 16 4 17 5 18 6 19 7 23 8 21 9 20 10 22 12
REMARK SMILES IDX 24 14 25 15 26 16 2 18 1 19 3 20 4 21 5 22 12 23 6 24 10 25
REMARK SMILES IDX 7 26 8 27 11 28 9 30
REMARK H PARENT 20 11 22 13 26 17 11 29 9 31
ROOT
ATOM      1  O   UNL     1      -9.307  -1.076 -30.665  1.00  0.00    -0.447 OA
ENDROOT
BRANCH   1   2
ATOM      2  C   UNL     1      -9.008  -0.218 -31.780  1.00  0.00     0.290 C 
BRANCH   2   3
ATOM      3  C   UNL     1      -8.977   1.235 -31.275  1.00  0.00     0.093 C 
BRANCH   3   4
ATOM      4  C   UNL     1      -7.575   1.727 -30.980  1.00  0.00    -0.040 A 
ATOM      5  C   UNL     1      -7.299   2.401 -29.778  1.00  0.00     0.008 A 
ATOM      6  C   UNL     1      -6.006   2.850 -29.488  1.00  0.00     0.050 A 
ATOM      7  C   UNL     1      -4.988   2.621 -30.403  1.00  0.00     0.157 A 
ATOM      8  C   UNL     1      -6.536   1.521 -31.900  1.00  0.00     0.054 A 
ATOM      9  C   UNL     1      -5.255   1.961 -31.599  1.00  0.00     0.157 A 
BRANCH   7  10
ATOM     10  O   UNL     1      -3.702   3.027 -30.175  1.00  0.00    -0.504 OA
ATOM     11  H   UNL     1      -3.326   2.462 -29.477  1.00  0.00     0.293 HD
ENDBRANCH   7  10
BRANCH   9  12
ATOM     12  O   UNL     1      -4.249   1.737 -32.494  1.00  0.00    -0.504 OA
ATOM     13  H   UNL     1      -3.459   1.580 -31.940  1.00  0.00     0.293 HD
ENDBRANCH   9  12
ENDBRANCH   3   4
ENDBRANCH   2   3
BRANCH   2  14
ATOM     14  C   UNL     1     -10.051  -0.351 -32.900  1.00  0.00     0.345 C 
ATOM     15  O   UNL     1     -11.256  -0.216 -32.746  1.00  0.00    -0.248 OA
BRANCH  14  16
ATOM     16  O   UNL     1      -9.520  -0.627 -34.116  1.00  0.00    -0.478 OA
ATOM     17  H   UNL     1      -9.758  -1.520 -34.468  1.00  0.00     0.296 HD
ENDBRANCH  14  16
ENDBRANCH   2  14
ENDBRANCH   1   2
BRANCH   1  18
ATOM     18  C   UNL     1      -8.340  -1.967 -30.353  1.00  0.00     0.331 C 
ATOM     19  O   UNL     1      -8.428  -3.176 -30.505  1.00  0.00    -0.247 OA
BRANCH  18  20
ATOM     20  C   UNL     1      -7.204  -1.248 -29.753  1.00  0.00     0.094 C 
ATOM     21  C   UNL     1      -5.954  -1.693 -29.949  1.00  0.00     0.016 C 
BRANCH  21  22
ATOM     22  C   UNL     1      -4.769  -1.050 -29.370  1.00  0.00    -0.021 A 
ATOM     23  C   UNL     1      -3.638  -0.751 -30.147  1.00  0.00     0.058 A 
ATOM     24  C   UNL     1      -4.796  -0.666 -28.019  1.00  0.00     0.012 A 
ATOM     25  C   UNL     1      -2.555  -0.100 -29.564  1.00  0.00     0.157 A 
ATOM     26  C   UNL     1      -3.702  -0.017 -27.441  1.00  0.00     0.051 A 
ATOM     27  C   UNL     1      -2.590   0.259 -28.220  1.00  0.00     0.157 A 
BRANCH  25  28
ATOM     28  O   UNL     1      -1.432   0.216 -30.276  1.00  0.00    -0.504 OA
ATOM     29  H   UNL     1      -1.704   0.663 -31.096  1.00  0.00     0.293 HD
ENDBRANCH  25  28
BRANCH  27  30
ATOM     30  O   UNL     1      -1.524   0.900 -27.657  1.00  0.00    -0.504 OA
ATOM     31  H   UNL     1      -1.637   1.837 -27.915  1.00  0.00     0.293 HD
ENDBRANCH  27  30
ENDBRANCH  21  22
ENDBRANCH  18  20
ENDBRANCH   1  18
TORSDOF 12
ENDMDL
MODEL 6
REMARK VINA RESULT:      -7.4      2.697      6.806
REMARK SMILES O=C(/C=C/c1ccc(O)c(O)c1)O[C@H](Cc1ccc(O)c(O)c1)C(=O)O
REMARK SMILES IDX 13 1 14 2 15 3 16 4 17 5 18 6 19 7 23 8 21 9 20 10 22 12
REMARK SMILES IDX 24 14 25 15 26 16 2 18 1 19 3 20 4 21 5 22 12 23 6 24 10 25
REMARK SMILES IDX 7 26 8 27 11 28 9 30
REMARK H PARENT 20 11 22 13 26 17 11 29 9 31
ROOT
ATOM      1  O   UNL     1      -5.018  -0.773 -30.724  1.00  0.00    -0.447 OA
ENDROOT
BRANCH   1   2
ATOM      2  C   UNL     1      -5.734   0.444 -30.454  1.00  0.00     0.290 C 
BRANCH   2   3
ATOM      3  C   UNL     1      -6.282   0.986 -31.786  1.00  0.00     0.093 C 
BRANCH   3   4
ATOM      4  C   UNL     1      -7.711   0.562 -32.053  1.00  0.00    -0.040 A 
ATOM      5  C   UNL     1      -8.089  -0.785 -31.912  1.00  0.00     0.008 A 
ATOM      6  C   UNL     1      -9.408  -1.188 -32.143  1.00  0.00     0.050 A 
ATOM      7  C   UNL     1     -10.351  -0.240 -32.514  1.00  0.00     0.157 A 
ATOM      8  C   UNL     1      -8.675   1.502 -32.445  1.00  0.00     0.054 A 
ATOM      9  C   UNL     1      -9.984   1.094 -32.662  1.00  0.00     0.157 A 
BRANCH   7  10
ATOM     10  O   UNL     1     -11.658  -0.569 -32.746  1.00  0.00    -0.504 OA
ATOM     11  H   UNL     1     -11.686  -1.180 -33.503  1.00  0.00     0.293 HD
ENDBRANCH   7  10
BRANCH   9  12
ATOM     12  O   UNL     1     -10.917   2.022 -33.025  1.00  0.00    -0.504 OA
ATOM     13  H   UNL     1     -11.487   2.117 -32.236  1.00  0.00     0.293 HD
ENDBRANCH   9  12
ENDBRANCH   3   4
ENDBRANCH   2   3
BRANCH   2  14
ATOM     14  C   UNL     1      -4.837   1.504 -29.798  1.00  0.00     0.345 C 
ATOM     15  O   UNL     1      -4.968   1.910 -28.652  1.00  0.00    -0.248 OA
BRANCH  14  16
ATOM     16  O   UNL     1      -3.849   1.964 -30.602  1.00  0.00    -0.478 OA
ATOM     17  H   UNL     1      -3.490   1.289 -31.229  1.00  0.00     0.296 HD
ENDBRANCH  14  16
ENDBRANCH   2  14
ENDBRANCH   1   2
BRANCH   1  18
ATOM     18  C   UNL     1      -4.730  -1.522 -29.636  1.00  0.00     0.331 C 
ATOM     19  O   UNL     1      -3.606  -1.725 -29.205  1.00  0.00    -0.247 OA
BRANCH  18  20
ATOM     20  C   UNL     1      -5.980  -2.090 -29.105  1.00  0.00     0.094 C 
ATOM     21  C   UNL     1      -6.751  -2.857 -29.889  1.00  0.00     0.016 C 
BRANCH  21  22
ATOM     22  C   UNL     1      -8.022  -3.443 -29.446  1.00  0.00    -0.021 A 
ATOM     23  C   UNL     1      -8.648  -4.474 -30.165  1.00  0.00     0.058 A 
ATOM     24  C   UNL     1      -8.587  -3.005 -28.237  1.00  0.00     0.012 A 
ATOM     25  C   UNL     1      -9.829  -5.029 -29.682  1.00  0.00     0.157 A 
ATOM     26  C   UNL     1      -9.776  -3.566 -27.763  1.00  0.00     0.051 A 
ATOM     27  C   UNL     1     -10.387  -4.574 -28.491  1.00  0.00     0.157 A 
BRANCH  25  28
ATOM     28  O   UNL     1     -10.478  -6.036 -30.341  1.00  0.00    -0.504 OA
ATOM     29  H   UNL     1      -9.935  -6.304 -31.103  1.00  0.00     0.293 HD
ENDBRANCH  25  28
BRANCH  27  30
ATOM     30  O   UNL     1     -11.544  -5.127 -28.023  1.00  0.00    -0.504 OA
ATOM     31  H   UNL     1     -11.533  -4.942 -27.063  1.00  0.00     0.293 HD
ENDBRANCH  27  30
ENDBRANCH  21  22
ENDBRANCH  18  20
ENDBRANCH   1  18
TORSDOF 12
ENDMDL
MODEL 7
REMARK VINA RESULT:      -7.4      2.296      4.038
REMARK SMILES O=C(/C=C/c1ccc(O)c(O)c1)O[C@H](Cc1ccc(O)c(O)c1)C(=O)O
REMARK SMILES IDX 13 1 14 2 15 3 16 4 17 5 18 6 19 7 23 8 21 9 20 10 22 12
REMARK SMILES IDX 24 14 25 15 26 16 2 18 1 19 3 20 4 21 5 22 12 23 6 24 10 25
REMARK SMILES IDX 7 26 8 27 11 28 9 30
REMARK H PARENT 20 11 22 13 26 17 11 29 9 31
ROOT
ATOM      1  O   UNL     1      -6.661  -0.185 -31.572  1.00  0.00    -0.447 OA
ENDROOT
BRANCH   1   2
ATOM      2  C   UNL     1      -6.948  -0.968 -30.400  1.00  0.00     0.290 C 
BRANCH   2   3
ATOM      3  C   UNL     1      -5.718  -1.836 -30.087  1.00  0.00     0.093 C 
BRANCH   3   4
ATOM      4  C   UNL     1      -4.602  -1.060 -29.418  1.00  0.00    -0.040 A 
ATOM      5  C   UNL     1      -4.712  -0.682 -28.069  1.00  0.00     0.008 A 
ATOM      6  C   UNL     1      -3.684   0.024 -27.436  1.00  0.00     0.050 A 
ATOM      7  C   UNL     1      -2.542   0.350 -28.155  1.00  0.00     0.157 A 
ATOM      8  C   UNL     1      -3.448  -0.706 -30.133  1.00  0.00     0.054 A 
ATOM      9  C   UNL     1      -2.429  -0.015 -29.494  1.00  0.00     0.157 A 
BRANCH   7  10
ATOM     10  O   UNL     1      -1.499   1.031 -27.591  1.00  0.00    -0.504 OA
ATOM     11  H   UNL     1      -0.892   1.298 -28.303  1.00  0.00     0.293 HD
ENDBRANCH   7  10
BRANCH   9  12
ATOM     12  O   UNL     1      -1.302   0.306 -30.195  1.00  0.00    -0.504 OA
ATOM     13  H   UNL     1      -1.034  -0.531 -30.624  1.00  0.00     0.293 HD
ENDBRANCH   9  12
ENDBRANCH   3   4
ENDBRANCH   2   3
BRANCH   2  14
ATOM     14  C   UNL     1      -8.176  -1.868 -30.600  1.00  0.00     0.345 C 
ATOM     15  O   UNL     1      -8.814  -2.383 -29.692  1.00  0.00    -0.248 OA
BRANCH  14  16
ATOM     16  O   UNL     1      -8.522  -2.049 -31.897  1.00  0.00    -0.478 OA
ATOM     17  H   UNL     1      -8.280  -1.295 -32.489  1.00  0.00     0.296 HD
ENDBRANCH  14  16
ENDBRANCH   2  14
ENDBRANCH   1   2
BRANCH   1  18
ATOM     18  C   UNL     1      -7.061   1.105 -31.512  1.00  0.00     0.331 C 
ATOM     19  O   UNL     1      -8.203   1.492 -31.704  1.00  0.00    -0.247 OA
BRANCH  18  20
ATOM     20  C   UNL     1      -5.891   1.955 -31.237  1.00  0.00     0.094 C 
ATOM     21  C   UNL     1      -5.870   2.728 -30.142  1.00  0.00     0.016 C 
BRANCH  21  22
ATOM     22  C   UNL     1      -4.754   3.621 -29.806  1.00  0.00    -0.021 A 
ATOM     23  C   UNL     1      -4.343   4.646 -30.674  1.00  0.00     0.058 A 
ATOM     24  C   UNL     1      -4.128   3.485 -28.556  1.00  0.00     0.012 A 
ATOM     25  C   UNL     1      -3.309   5.495 -30.293  1.00  0.00     0.157 A 
ATOM     26  C   UNL     1      -3.087   4.340 -28.185  1.00  0.00     0.051 A 
ATOM     27  C   UNL     1      -2.686   5.338 -29.058  1.00  0.00     0.157 A 
BRANCH  25  28
ATOM     28  O   UNL     1      -2.873   6.510 -31.098  1.00  0.00    -0.504 OA
ATOM     29  H   UNL     1      -1.925   6.650 -30.930  1.00  0.00     0.293 HD
ENDBRANCH  25  28
BRANCH  27  30
ATOM     30  O   UNL     1      -1.675   6.178 -28.692  1.00  0.00    -0.504 OA
ATOM     31  H   UNL     1      -2.126   7.012 -28.448  1.00  0.00     0.293 HD
ENDBRANCH  27  30
ENDBRANCH  21  22
ENDBRANCH  18  20
ENDBRANCH   1  18
TORSDOF 12
ENDMDL
MODEL 8
REMARK VINA RESULT:      -7.4      1.762      6.150
REMARK SMILES O=C(/C=C/c1ccc(O)c(O)c1)O[C@H](Cc1ccc(O)c(O)c1)C(=O)O
REMARK SMILES IDX 13 1 14 2 15 3 16 4 17 5 18 6 19 7 23 8 21 9 20 10 22 12
REMARK SMILES IDX 24 14 25 15 26 16 2 18 1 19 3 20 4 21 5 22 12 23 6 24 10 25
REMARK SMILES IDX 7 26 8 27 11 28 9 30
REMARK H PARENT 20 11 22 13 26 17 11 29 9 31
ROOT
ATOM      1  O   UNL     1      -4.372   1.602 -28.462  1.00  0.00    -0.447 OA
ENDROOT
BRANCH   1   2
ATOM      2  C   UNL     1      -3.714   0.385 -28.855  1.00  0.00     0.290 C 
BRANCH   2   3
ATOM      3  C   UNL     1      -4.175  -0.738 -27.910  1.00  0.00     0.093 C 
BRANCH   3   4
ATOM      4  C   UNL     1      -5.535  -1.294 -28.273  1.00  0.00    -0.040 A 
ATOM      5  C   UNL     1      -5.727  -1.953 -29.500  1.00  0.00     0.008 A 
ATOM      6  C   UNL     1      -6.975  -2.483 -29.843  1.00  0.00     0.050 A 
ATOM      7  C   UNL     1      -8.034  -2.354 -28.954  1.00  0.00     0.157 A 
ATOM      8  C   UNL     1      -6.622  -1.158 -27.396  1.00  0.00     0.054 A 
ATOM      9  C   UNL     1      -7.854  -1.696 -27.740  1.00  0.00     0.157 A 
BRANCH   7  10
ATOM     10  O   UNL     1      -9.276  -2.857 -29.227  1.00  0.00    -0.504 OA
ATOM     11  H   UNL     1      -9.478  -2.671 -30.160  1.00  0.00     0.293 HD
ENDBRANCH   7  10
BRANCH   9  12
ATOM     12  O   UNL     1      -8.898  -1.575 -26.869  1.00  0.00    -0.504 OA
ATOM     13  H   UNL     1      -9.590  -2.162 -27.233  1.00  0.00     0.293 HD
ENDBRANCH   9  12
ENDBRANCH   3   4
ENDBRANCH   2   3
BRANCH   2  14
ATOM     14  C   UNL     1      -2.185   0.515 -28.793  1.00  0.00     0.345 C 
ATOM     15  O   UNL     1      -1.429   0.264 -29.720  1.00  0.00    -0.248 OA
BRANCH  14  16
ATOM     16  O   UNL     1      -1.718   0.954 -27.599  1.00  0.00    -0.478 OA
ATOM     17  H   UNL     1      -0.815   0.622 -27.371  1.00  0.00     0.296 HD
ENDBRANCH  14  16
ENDBRANCH   2  14
ENDBRANCH   1   2
BRANCH   1  18
ATOM     18  C   UNL     1      -4.726   2.416 -29.482  1.00  0.00     0.331 C 
ATOM     19  O   UNL     1      -4.046   3.335 -29.911  1.00  0.00    -0.247 OA
BRANCH  18  20
ATOM     20  C   UNL     1      -6.076   2.049 -29.939  1.00  0.00     0.094 C 
ATOM     21  C   UNL     1      -6.232   1.383 -31.092  1.00  0.00     0.016 C 
BRANCH  21  22
ATOM     22  C   UNL     1      -7.543   0.999 -31.631  1.00  0.00    -0.021 A 
ATOM     23  C   UNL     1      -8.636   0.733 -30.790  1.00  0.00     0.058 A 
ATOM     24  C   UNL     1      -7.721   0.962 -33.023  1.00  0.00     0.012 A 
ATOM     25  C   UNL     1      -9.870   0.415 -31.348  1.00  0.00     0.157 A 
ATOM     26  C   UNL     1      -8.963   0.638 -33.574  1.00  0.00     0.051 A 
ATOM     27  C   UNL     1     -10.028   0.366 -32.730  1.00  0.00     0.157 A 
BRANCH  25  28
ATOM     28  O   UNL     1     -10.966   0.150 -30.575  1.00  0.00    -0.504 OA
ATOM     29  H   UNL     1     -10.829   0.551 -29.700  1.00  0.00     0.293 HD
ENDBRANCH  25  28
BRANCH  27  30
ATOM     30  O   UNL     1     -11.243   0.057 -33.268  1.00  0.00    -0.504 OA
ATOM     31  H   UNL     1     -11.404  -0.869 -32.994  1.00  0.00     0.293 HD
ENDBRANCH  27  30
ENDBRANCH  21  22
ENDBRANCH  18  20
ENDBRANCH   1  18
TORSDOF 12
ENDMDL
MODEL 9
REMARK VINA RESULT:      -7.4      1.737      2.165
REMARK SMILES O=C(/C=C/c1ccc(O)c(O)c1)O[C@H](Cc1ccc(O)c(O)c1)C(=O)O
REMARK SMILES IDX 13 1 14 2 15 3 16 4 17 5 18 6 19 7 23 8 21 9 20 10 22 12
REMARK SMILES IDX 24 14 25 15 26 16 2 18 1 19 3 20 4 21 5 22 12 23 6 24 10 25
REMARK SMILES IDX 7 26 8 27 11 28 9 30
REMARK H PARENT 20 11 22 13 26 17 11 29 9 31
ROOT
ATOM      1  O   UNL     1      -7.977   0.232 -32.736  1.00  0.00    -0.447 OA
ENDROOT
BRANCH   1   2
ATOM      2  C   UNL     1      -9.236  -0.027 -32.091  1.00  0.00     0.290 C 
BRANCH   2   3
ATOM      3  C   UNL     1      -9.339  -1.539 -31.827  1.00  0.00     0.093 C 
BRANCH   3   4
ATOM      4  C   UNL     1      -9.351  -1.881 -30.352  1.00  0.00    -0.040 A 
ATOM      5  C   UNL     1      -9.734  -0.918 -29.404  1.00  0.00     0.008 A 
ATOM      6  C   UNL     1      -9.762  -1.224 -28.039  1.00  0.00     0.050 A 
ATOM      7  C   UNL     1      -9.406  -2.501 -27.624  1.00  0.00     0.157 A 
ATOM      8  C   UNL     1      -8.978  -3.160 -29.911  1.00  0.00     0.054 A 
ATOM      9  C   UNL     1      -9.018  -3.458 -28.557  1.00  0.00     0.157 A 
BRANCH   7  10
ATOM     10  O   UNL     1      -9.420  -2.865 -26.306  1.00  0.00    -0.504 OA
ATOM     11  H   UNL     1      -8.869  -2.233 -25.812  1.00  0.00     0.293 HD
ENDBRANCH   7  10
BRANCH   9  12
ATOM     12  O   UNL     1      -8.672  -4.712 -28.142  1.00  0.00    -0.504 OA
ATOM     13  H   UNL     1      -8.103  -5.059 -28.858  1.00  0.00     0.293 HD
ENDBRANCH   9  12
ENDBRANCH   3   4
ENDBRANCH   2   3
BRANCH   2  14
ATOM     14  C   UNL     1     -10.424   0.428 -32.950  1.00  0.00     0.345 C 
ATOM     15  O   UNL     1     -10.920  -0.231 -33.853  1.00  0.00    -0.248 OA
BRANCH  14  16
ATOM     16  O   UNL     1     -10.907   1.650 -32.619  1.00  0.00    -0.478 OA
ATOM     17  H   UNL     1     -10.254   2.385 -32.721  1.00  0.00     0.296 HD
ENDBRANCH  14  16
ENDBRANCH   2  14
ENDBRANCH   1   2
BRANCH   1  18
ATOM     18  C   UNL     1      -7.592   1.528 -32.742  1.00  0.00     0.331 C 
ATOM     19  O   UNL     1      -8.042   2.387 -33.484  1.00  0.00    -0.247 OA
BRANCH  18  20
ATOM     20  C   UNL     1      -6.512   1.710 -31.759  1.00  0.00     0.094 C 
ATOM     21  C   UNL     1      -5.657   0.706 -31.513  1.00  0.00     0.016 C 
BRANCH  21  22
ATOM     22  C   UNL     1      -4.568   0.796 -30.534  1.00  0.00    -0.021 A 
ATOM     23  C   UNL     1      -4.443   1.896 -29.669  1.00  0.00     0.058 A 
ATOM     24  C   UNL     1      -3.668  -0.276 -30.417  1.00  0.00     0.012 A 
ATOM     25  C   UNL     1      -3.420   1.917 -28.726  1.00  0.00     0.157 A 
ATOM     26  C   UNL     1      -2.641  -0.244 -29.470  1.00  0.00     0.051 A 
ATOM     27  C   UNL     1      -2.526   0.854 -28.633  1.00  0.00     0.157 A 
BRANCH  25  28
ATOM     28  O   UNL     1      -3.256   2.961 -27.859  1.00  0.00    -0.504 OA
ATOM     29  H   UNL     1      -3.578   2.687 -26.984  1.00  0.00     0.293 HD
ENDBRANCH  25  28
BRANCH  27  30
ATOM     30  O   UNL     1      -1.527   0.882 -27.703  1.00  0.00    -0.504 OA
ATOM     31  H   UNL     1      -1.982   0.730 -26.850  1.00  0.00     0.293 HD
ENDBRANCH  27  30
ENDBRANCH  21  22
ENDBRANCH  18  20
ENDBRANCH   1  18
TORSDOF 12
ENDMDL
MODEL 10
REMARK VINA RESULT:      -7.3      1.869      2.971
REMARK SMILES O=C(/C=C/c1ccc(O)c(O)c1)O[C@H](Cc1ccc(O)c(O)c1)C(=O)O
REMARK SMILES IDX 13 1 14 2 15 3 16 4 17 5 18 6 19 7 23 8 21 9 20 10 22 12
REMARK SMILES IDX 24 14 25 15 26 16 2 18 1 19 3 20 4 21 5 22 12 23 6 24 10 25
REMARK SMILES IDX 7 26 8 27 11 28 9 30
REMARK H PARENT 20 11 22 13 26 17 11 29 9 31
ROOT
ATOM      1  O   UNL     1      -8.329   0.059 -33.369  1.00  0.00    -0.447 OA
ENDROOT
BRANCH   1   2
ATOM      2  C   UNL     1      -9.311  -0.060 -32.325  1.00  0.00     0.290 C 
BRANCH   2   3
ATOM      3  C   UNL     1      -9.440  -1.548 -31.954  1.00  0.00     0.093 C 
BRANCH   3   4
ATOM      4  C   UNL     1      -9.321  -1.797 -30.465  1.00  0.00    -0.040 A 
ATOM      5  C   UNL     1      -9.504  -0.743 -29.553  1.00  0.00     0.008 A 
ATOM      6  C   UNL     1      -9.410  -0.962 -28.175  1.00  0.00     0.050 A 
ATOM      7  C   UNL     1      -9.135  -2.240 -27.709  1.00  0.00     0.157 A 
ATOM      8  C   UNL     1      -9.027  -3.078 -29.975  1.00  0.00     0.054 A 
ATOM      9  C   UNL     1      -8.946  -3.288 -28.606  1.00  0.00     0.157 A 
BRANCH   7  10
ATOM     10  O   UNL     1      -9.038  -2.521 -26.374  1.00  0.00    -0.504 OA
ATOM     11  H   UNL     1      -9.317  -1.731 -25.879  1.00  0.00     0.293 HD
ENDBRANCH   7  10
BRANCH   9  12
ATOM     12  O   UNL     1      -8.678  -4.543 -28.141  1.00  0.00    -0.504 OA
ATOM     13  H   UNL     1      -8.002  -4.893 -28.755  1.00  0.00     0.293 HD
ENDBRANCH   9  12
ENDBRANCH   3   4
ENDBRANCH   2   3
BRANCH   2  14
ATOM     14  C   UNL     1     -10.680   0.482 -32.762  1.00  0.00     0.345 C 
ATOM     15  O   UNL     1     -10.909   1.654 -33.027  1.00  0.00    -0.248 OA
BRANCH  14  16
ATOM     16  O   UNL     1     -11.646  -0.464 -32.845  1.00  0.00    -0.478 OA
ATOM     17  H   UNL     1     -12.103  -0.652 -31.989  1.00  0.00     0.296 HD
ENDBRANCH  14  16
ENDBRANCH   2  14
ENDBRANCH   1   2
BRANCH   1  18
ATOM     18  C   UNL     1      -7.321   0.922 -33.112  1.00  0.00     0.331 C 
ATOM     19  O   UNL     1      -6.760   1.611 -33.950  1.00  0.00    -0.247 OA
BRANCH  18  20
ATOM     20  C   UNL     1      -6.982   0.846 -31.682  1.00  0.00     0.094 C 
ATOM     21  C   UNL     1      -6.122  -0.088 -31.248  1.00  0.00     0.016 C 
BRANCH  21  22
ATOM     22  C   UNL     1      -5.747  -0.246 -29.838  1.00  0.00    -0.021 A 
ATOM     23  C   UNL     1      -5.734  -1.506 -29.216  1.00  0.00     0.058 A 
ATOM     24  C   UNL     1      -5.329   0.883 -29.115  1.00  0.00     0.012 A 
ATOM     25  C   UNL     1      -5.329  -1.613 -27.890  1.00  0.00     0.157 A 
ATOM     26  C   UNL     1      -4.928   0.766 -27.782  1.00  0.00     0.051 A 
ATOM     27  C   UNL     1      -4.933  -0.483 -27.180  1.00  0.00     0.157 A 
BRANCH  25  28
ATOM     28  O   UNL     1      -5.294  -2.814 -27.238  1.00  0.00    -0.504 OA
ATOM     29  H   UNL     1      -6.127  -2.920 -26.746  1.00  0.00     0.293 HD
ENDBRANCH  25  28
BRANCH  27  30
ATOM     30  O   UNL     1      -4.533  -0.597 -25.880  1.00  0.00    -0.504 OA
ATOM     31  H   UNL     1      -3.559  -0.680 -25.929  1.00  0.00     0.293 HD
ENDBRANCH  27  30
ENDBRANCH  21  22
ENDBRANCH  18  20
ENDBRANCH   1  18
TORSDOF 12
ENDMDL
