MODEL 1
REMARK VINA RESULT:      -8.9      0.000      0.000
REMARK SMILES O=C(/C=C/c1ccc(O)c(O)c1)O[C@@H]1[C@H](O)C[C@@](O)(C(=O)O)C[C@H]1OC(=O)/C=C/c1ccc(O)c(O)c1
REMARK SMILES IDX 17 1 15 2 14 3 24 4 23 5 18 6 16 7 19 9 20 11 21 12 22 13
REMARK SMILES IDX 13 15 2 16 1 17 3 18 4 19 5 20 12 21 6 22 10 23 7 24 8 25
REMARK SMILES IDX 11 26 9 28 25 30 26 31 27 32 28 33 29 34 30 35 37 36 31 37
REMARK SMILES IDX 35 38 32 39 33 40 36 41 34 43
REMARK H PARENT 16 8 19 10 22 14 11 27 9 29 36 42 34 44
ROOT
ATOM      1  C   UNL     1     -10.429  -2.636 -22.960  1.00  0.00     0.083 C 
ATOM      2  C   UNL     1     -10.517  -1.565 -24.044  1.00  0.00     0.162 C 
ATOM      3  C   UNL     1      -9.215  -1.485 -24.858  1.00  0.00     0.246 C 
ATOM      4  C   UNL     1      -8.001  -1.227 -23.943  1.00  0.00     0.223 C 
ATOM      5  C   UNL     1      -7.918  -2.279 -22.831  1.00  0.00     0.097 C 
ATOM      6  C   UNL     1      -9.222  -2.399 -22.041  1.00  0.00     0.168 C 
ENDROOT
BRANCH   2   7
ATOM      7  O   UNL     1     -10.765  -0.310 -23.389  1.00  0.00    -0.389 OA
ATOM      8  H   UNL     1      -9.985  -0.136 -22.823  1.00  0.00     0.211 HD
ENDBRANCH   2   7
BRANCH   6   9
ATOM      9  O   UNL     1      -9.405  -1.197 -21.262  1.00  0.00    -0.378 OA
ATOM     10  H   UNL     1     -10.322  -1.226 -20.898  1.00  0.00     0.212 HD
ENDBRANCH   6   9
BRANCH   6  11
ATOM     11  C   UNL     1      -9.112  -3.563 -21.046  1.00  0.00     0.335 C 
ATOM     12  O   UNL     1      -9.283  -3.475 -19.840  1.00  0.00    -0.249 OA
BRANCH  11  13
ATOM     13  O   UNL     1      -8.807  -4.727 -21.674  1.00  0.00    -0.479 OA
ATOM     14  H   UNL     1      -8.608  -5.390 -20.967  1.00  0.00     0.296 HD
ENDBRANCH  11  13
ENDBRANCH   6  11
BRANCH   3  15
ATOM     15  O   UNL     1      -9.320  -0.392 -25.798  1.00  0.00    -0.452 OA
BRANCH  15  16
ATOM     16  C   UNL     1      -8.933  -0.662 -27.066  1.00  0.00     0.331 C 
ATOM     17  O   UNL     1      -9.243  -1.643 -27.719  1.00  0.00    -0.247 OA
BRANCH  16  18
ATOM     18  C   UNL     1      -8.072   0.445 -27.525  1.00  0.00     0.094 C 
ATOM     19  C   UNL     1      -7.376   0.319 -28.665  1.00  0.00     0.016 C 
BRANCH  19  20
ATOM     20  C   UNL     1      -6.497   1.364 -29.211  1.00  0.00    -0.021 A 
ATOM     21  C   UNL     1      -5.838   1.119 -30.427  1.00  0.00     0.058 A 
ATOM     22  C   UNL     1      -6.254   2.570 -28.532  1.00  0.00     0.012 A 
ATOM     23  C   UNL     1      -4.979   2.080 -30.953  1.00  0.00     0.157 A 
ATOM     24  C   UNL     1      -5.389   3.529 -29.067  1.00  0.00     0.051 A 
ATOM     25  C   UNL     1      -4.762   3.276 -30.276  1.00  0.00     0.157 A 
BRANCH  23  26
ATOM     26  O   UNL     1      -4.322   1.892 -32.138  1.00  0.00    -0.504 OA
ATOM     27  H   UNL     1      -3.796   1.077 -32.070  1.00  0.00     0.293 HD
ENDBRANCH  23  26
BRANCH  25  28
ATOM     28  O   UNL     1      -3.917   4.212 -30.798  1.00  0.00    -0.504 OA
ATOM     29  H   UNL     1      -4.451   4.675 -31.474  1.00  0.00     0.293 HD
ENDBRANCH  25  28
ENDBRANCH  19  20
ENDBRANCH  16  18
ENDBRANCH  15  16
ENDBRANCH   3  15
BRANCH   4  30
ATOM     30  O   UNL     1      -6.782  -1.347 -24.715  1.00  0.00    -0.455 OA
BRANCH  30  31
ATOM     31  C   UNL     1      -5.788  -0.474 -24.427  1.00  0.00     0.331 C 
ATOM     32  O   UNL     1      -5.559   0.031 -23.338  1.00  0.00    -0.247 OA
BRANCH  31  33
ATOM     33  C   UNL     1      -4.967  -0.166 -25.616  1.00  0.00     0.094 C 
ATOM     34  C   UNL     1      -4.670  -1.049 -26.583  1.00  0.00     0.016 C 
BRANCH  34  35
ATOM     35  C   UNL     1      -3.866  -0.709 -27.765  1.00  0.00    -0.021 A 
ATOM     36  C   UNL     1      -3.949  -1.531 -28.899  1.00  0.00     0.058 A 
ATOM     37  C   UNL     1      -2.981   0.383 -27.770  1.00  0.00     0.012 A 
ATOM     38  C   UNL     1      -3.177  -1.238 -30.020  1.00  0.00     0.157 A 
ATOM     39  C   UNL     1      -2.209   0.669 -28.899  1.00  0.00     0.051 A 
ATOM     40  C   UNL     1      -2.316  -0.144 -30.016  1.00  0.00     0.157 A 
BRANCH  38  41
ATOM     41  O   UNL     1      -3.229  -1.999 -31.154  1.00  0.00    -0.504 OA
ATOM     42  H   UNL     1      -2.733  -2.821 -30.995  1.00  0.00     0.293 HD
ENDBRANCH  38  41
BRANCH  40  43
ATOM     43  O   UNL     1      -1.562   0.136 -31.118  1.00  0.00    -0.504 OA
ATOM     44  H   UNL     1      -2.180   0.038 -31.870  1.00  0.00     0.293 HD
ENDBRANCH  40  43
ENDBRANCH  34  35
ENDBRANCH  31  33
ENDBRANCH  30  31
ENDBRANCH   4  30
TORSDOF 16
ENDMDL
MODEL 2
REMARK VINA RESULT:      -8.8      1.350      3.882
REMARK SMILES O=C(/C=C/c1ccc(O)c(O)c1)O[C@@H]1[C@H](O)C[C@@](O)(C(=O)O)C[C@H]1OC(=O)/C=C/c1ccc(O)c(O)c1
REMARK SMILES IDX 17 1 15 2 14 3 24 4 23 5 18 6 16 7 19 9 20 11 21 12 22 13
REMARK SMILES IDX 13 15 2 16 1 17 3 18 4 19 5 20 12 21 6 22 10 23 7 24 8 25
REMARK SMILES IDX 11 26 9 28 25 30 26 31 27 32 28 33 29 34 30 35 37 36 31 37
REMARK SMILES IDX 35 38 32 39 33 40 36 41 34 43
REMARK H PARENT 16 8 19 10 22 14 11 27 9 29 36 42 34 44
ROOT
ATOM      1  C   UNL     1      -8.479  -2.052 -20.683  1.00  0.00     0.083 C 
ATOM      2  C   UNL     1      -7.615  -2.425 -21.885  1.00  0.00     0.162 C 
ATOM      3  C   UNL     1      -7.541  -1.271 -22.900  1.00  0.00     0.246 C 
ATOM      4  C   UNL     1      -8.950  -0.846 -23.361  1.00  0.00     0.223 C 
ATOM      5  C   UNL     1      -9.838  -0.498 -22.162  1.00  0.00     0.097 C 
ATOM      6  C   UNL     1      -9.885  -1.620 -21.124  1.00  0.00     0.168 C 
ENDROOT
BRANCH   2   7
ATOM      7  O   UNL     1      -8.206  -3.582 -22.498  1.00  0.00    -0.389 OA
ATOM      8  H   UNL     1      -9.173  -3.498 -22.371  1.00  0.00     0.211 HD
ENDBRANCH   2   7
BRANCH   6   9
ATOM      9  O   UNL     1     -10.610  -2.737 -21.681  1.00  0.00    -0.378 OA
ATOM     10  H   UNL     1     -10.507  -2.689 -22.661  1.00  0.00     0.212 HD
ENDBRANCH   6   9
BRANCH   6  11
ATOM     11  C   UNL     1     -10.673  -1.146 -19.894  1.00  0.00     0.335 C 
ATOM     12  O   UNL     1     -10.751  -1.749 -18.835  1.00  0.00    -0.249 OA
BRANCH  11  13
ATOM     13  O   UNL     1     -11.277   0.049 -20.119  1.00  0.00    -0.479 OA
ATOM     14  H   UNL     1     -12.202  -0.030 -19.777  1.00  0.00     0.296 HD
ENDBRANCH  11  13
ENDBRANCH   6  11
BRANCH   3  15
ATOM     15  O   UNL     1      -6.796  -1.716 -24.056  1.00  0.00    -0.452 OA
BRANCH  15  16
ATOM     16  C   UNL     1      -5.737  -0.951 -24.407  1.00  0.00     0.331 C 
ATOM     17  O   UNL     1      -5.111  -0.208 -23.672  1.00  0.00    -0.247 OA
BRANCH  16  18
ATOM     18  C   UNL     1      -5.465  -1.180 -25.839  1.00  0.00     0.094 C 
ATOM     19  C   UNL     1      -4.391  -0.614 -26.412  1.00  0.00     0.016 C 
BRANCH  19  20
ATOM     20  C   UNL     1      -4.030  -0.784 -27.827  1.00  0.00    -0.021 A 
ATOM     21  C   UNL     1      -2.914  -0.090 -28.323  1.00  0.00     0.058 A 
ATOM     22  C   UNL     1      -4.793  -1.570 -28.707  1.00  0.00     0.012 A 
ATOM     23  C   UNL     1      -2.565  -0.212 -29.665  1.00  0.00     0.157 A 
ATOM     24  C   UNL     1      -4.435  -1.687 -30.054  1.00  0.00     0.051 A 
ATOM     25  C   UNL     1      -3.321  -1.008 -30.520  1.00  0.00     0.157 A 
BRANCH  23  26
ATOM     26  O   UNL     1      -1.481   0.435 -30.193  1.00  0.00    -0.504 OA
ATOM     27  H   UNL     1      -0.862   0.634 -29.470  1.00  0.00     0.293 HD
ENDBRANCH  23  26
BRANCH  25  28
ATOM     28  O   UNL     1      -2.973  -1.121 -31.834  1.00  0.00    -0.504 OA
ATOM     29  H   UNL     1      -3.178  -0.247 -32.220  1.00  0.00     0.293 HD
ENDBRANCH  25  28
ENDBRANCH  19  20
ENDBRANCH  16  18
ENDBRANCH  15  16
ENDBRANCH   3  15
BRANCH   4  30
ATOM     30  O   UNL     1      -8.850   0.355 -24.163  1.00  0.00    -0.455 OA
BRANCH  30  31
ATOM     31  C   UNL     1      -9.272   0.270 -25.447  1.00  0.00     0.331 C 
ATOM     32  O   UNL     1     -10.333  -0.199 -25.832  1.00  0.00    -0.247 OA
BRANCH  31  33
ATOM     33  C   UNL     1      -8.276   0.819 -26.390  1.00  0.00     0.094 C 
ATOM     34  C   UNL     1      -8.257   0.566 -27.708  1.00  0.00     0.016 C 
BRANCH  34  35
ATOM     35  C   UNL     1      -7.263   1.142 -28.624  1.00  0.00    -0.021 A 
ATOM     36  C   UNL     1      -7.239   0.705 -29.957  1.00  0.00     0.058 A 
ATOM     37  C   UNL     1      -6.308   2.077 -28.189  1.00  0.00     0.012 A 
ATOM     38  C   UNL     1      -6.290   1.223 -30.834  1.00  0.00     0.157 A 
ATOM     39  C   UNL     1      -5.358   2.590 -29.076  1.00  0.00     0.051 A 
ATOM     40  C   UNL     1      -5.359   2.160 -30.392  1.00  0.00     0.157 A 
BRANCH  38  41
ATOM     41  O   UNL     1      -6.230   0.839 -32.145  1.00  0.00    -0.504 OA
ATOM     42  H   UNL     1      -6.362   1.626 -32.701  1.00  0.00     0.293 HD
ENDBRANCH  38  41
BRANCH  40  43
ATOM     43  O   UNL     1      -4.432   2.661 -31.258  1.00  0.00    -0.504 OA
ATOM     44  H   UNL     1      -3.605   2.185 -31.037  1.00  0.00     0.293 HD
ENDBRANCH  40  43
ENDBRANCH  34  35
ENDBRANCH  31  33
ENDBRANCH  30  31
ENDBRANCH   4  30
TORSDOF 16
ENDMDL
MODEL 3
REMARK VINA RESULT:      -8.8      1.804      3.513
REMARK SMILES O=C(/C=C/c1ccc(O)c(O)c1)O[C@@H]1[C@H](O)C[C@@](O)(C(=O)O)C[C@H]1OC(=O)/C=C/c1ccc(O)c(O)c1
REMARK SMILES IDX 17 1 15 2 14 3 24 4 23 5 18 6 16 7 19 9 20 11 21 12 22 13
REMARK SMILES IDX 13 15 2 16 1 17 3 18 4 19 5 20 12 21 6 22 10 23 7 24 8 25
REMARK SMILES IDX 11 26 9 28 25 30 26 31 27 32 28 33 29 34 30 35 37 36 31 37
REMARK SMILES IDX 35 38 32 39 33 40 36 41 34 43
REMARK H PARENT 16 8 19 10 22 14 11 27 9 29 36 42 34 44
ROOT
ATOM      1  C   UNL     1      -9.921  -1.635 -22.265  1.00  0.00     0.083 C 
ATOM      2  C   UNL     1      -9.602  -0.239 -22.794  1.00  0.00     0.162 C 
ATOM      3  C   UNL     1      -8.467  -0.280 -23.831  1.00  0.00     0.246 C 
ATOM      4  C   UNL     1      -7.201  -0.936 -23.244  1.00  0.00     0.223 C 
ATOM      5  C   UNL     1      -7.513  -2.326 -22.681  1.00  0.00     0.097 C 
ATOM      6  C   UNL     1      -8.669  -2.306 -21.681  1.00  0.00     0.168 C 
ENDROOT
BRANCH   2   7
ATOM      7  O   UNL     1      -9.213   0.568 -21.671  1.00  0.00    -0.389 OA
ATOM      8  H   UNL     1      -8.235   0.610 -21.686  1.00  0.00     0.211 HD
ENDBRANCH   2   7
BRANCH   6   9
ATOM      9  O   UNL     1      -8.237  -1.623 -20.485  1.00  0.00    -0.378 OA
ATOM     10  H   UNL     1      -8.896  -0.911 -20.305  1.00  0.00     0.212 HD
ENDBRANCH   6   9
BRANCH   6  11
ATOM     11  C   UNL     1      -9.017  -3.745 -21.272  1.00  0.00     0.335 C 
ATOM     12  O   UNL     1      -8.940  -4.721 -22.001  1.00  0.00    -0.249 OA
BRANCH  11  13
ATOM     13  O   UNL     1      -9.419  -3.810 -19.977  1.00  0.00    -0.479 OA
ATOM     14  H   UNL     1     -10.280  -3.327 -19.920  1.00  0.00     0.296 HD
ENDBRANCH  11  13
ENDBRANCH   6  11
BRANCH   3  15
ATOM     15  O   UNL     1      -8.143   1.074 -24.220  1.00  0.00    -0.452 OA
BRANCH  15  16
ATOM     16  C   UNL     1      -8.510   1.434 -25.472  1.00  0.00     0.331 C 
ATOM     17  O   UNL     1      -8.761   2.565 -25.851  1.00  0.00    -0.247 OA
BRANCH  16  18
ATOM     18  C   UNL     1      -8.546   0.216 -26.303  1.00  0.00     0.094 C 
ATOM     19  C   UNL     1      -7.997   0.228 -27.527  1.00  0.00     0.016 C 
BRANCH  19  20
ATOM     20  C   UNL     1      -7.976  -0.932 -28.430  1.00  0.00    -0.021 A 
ATOM     21  C   UNL     1      -8.316  -2.193 -27.913  1.00  0.00     0.058 A 
ATOM     22  C   UNL     1      -7.575  -0.829 -29.773  1.00  0.00     0.012 A 
ATOM     23  C   UNL     1      -8.279  -3.312 -28.739  1.00  0.00     0.157 A 
ATOM     24  C   UNL     1      -7.540  -1.959 -30.597  1.00  0.00     0.051 A 
ATOM     25  C   UNL     1      -7.896  -3.191 -30.072  1.00  0.00     0.157 A 
BRANCH  23  26
ATOM     26  O   UNL     1      -8.611  -4.559 -28.285  1.00  0.00    -0.504 OA
ATOM     27  H   UNL     1      -8.372  -5.207 -28.971  1.00  0.00     0.293 HD
ENDBRANCH  23  26
BRANCH  25  28
ATOM     28  O   UNL     1      -7.861  -4.293 -30.875  1.00  0.00    -0.504 OA
ATOM     29  H   UNL     1      -7.077  -4.793 -30.575  1.00  0.00     0.293 HD
ENDBRANCH  25  28
ENDBRANCH  19  20
ENDBRANCH  16  18
ENDBRANCH  15  16
ENDBRANCH   3  15
BRANCH   4  30
ATOM     30  O   UNL     1      -6.226  -1.126 -24.298  1.00  0.00    -0.455 OA
BRANCH  30  31
ATOM     31  C   UNL     1      -5.265  -0.179 -24.419  1.00  0.00     0.331 C 
ATOM     32  O   UNL     1      -4.813   0.515 -23.521  1.00  0.00    -0.247 OA
BRANCH  31  33
ATOM     33  C   UNL     1      -4.794  -0.053 -25.814  1.00  0.00     0.094 C 
ATOM     34  C   UNL     1      -4.658  -1.082 -26.665  1.00  0.00     0.016 C 
BRANCH  34  35
ATOM     35  C   UNL     1      -4.204  -0.922 -28.054  1.00  0.00    -0.021 A 
ATOM     36  C   UNL     1      -4.184   0.364 -28.615  1.00  0.00     0.058 A 
ATOM     37  C   UNL     1      -3.842  -2.025 -28.847  1.00  0.00     0.012 A 
ATOM     38  C   UNL     1      -3.779   0.532 -29.936  1.00  0.00     0.157 A 
ATOM     39  C   UNL     1      -3.438  -1.846 -30.173  1.00  0.00     0.051 A 
ATOM     40  C   UNL     1      -3.408  -0.567 -30.705  1.00  0.00     0.157 A 
BRANCH  38  41
ATOM     41  O   UNL     1      -3.729   1.765 -30.527  1.00  0.00    -0.504 OA
ATOM     42  H   UNL     1      -2.822   1.918 -30.842  1.00  0.00     0.293 HD
ENDBRANCH  38  41
BRANCH  40  43
ATOM     43  O   UNL     1      -3.014  -0.394 -32.000  1.00  0.00    -0.504 OA
ATOM     44  H   UNL     1      -3.839  -0.468 -32.520  1.00  0.00     0.293 HD
ENDBRANCH  40  43
ENDBRANCH  34  35
ENDBRANCH  31  33
ENDBRANCH  30  31
ENDBRANCH   4  30
TORSDOF 16
ENDMDL
MODEL 4
REMARK VINA RESULT:      -8.7      2.242      2.857
REMARK SMILES O=C(/C=C/c1ccc(O)c(O)c1)O[C@@H]1[C@H](O)C[C@@](O)(C(=O)O)C[C@H]1OC(=O)/C=C/c1ccc(O)c(O)c1
REMARK SMILES IDX 17 1 15 2 14 3 24 4 23 5 18 6 16 7 19 9 20 11 21 12 22 13
REMARK SMILES IDX 13 15 2 16 1 17 3 18 4 19 5 20 12 21 6 22 10 23 7 24 8 25
REMARK SMILES IDX 11 26 9 28 25 30 26 31 27 32 28 33 29 34 30 35 37 36 31 37
REMARK SMILES IDX 35 38 32 39 33 40 36 41 34 43
REMARK H PARENT 16 8 19 10 22 14 11 27 9 29 36 42 34 44
ROOT
ATOM      1  C   UNL     1     -10.511  -2.656 -22.793  1.00  0.00     0.083 C 
ATOM      2  C   UNL     1     -10.416  -1.948 -24.142  1.00  0.00     0.162 C 
ATOM      3  C   UNL     1      -8.989  -2.016 -24.710  1.00  0.00     0.246 C 
ATOM      4  C   UNL     1      -7.966  -1.425 -23.719  1.00  0.00     0.223 C 
ATOM      5  C   UNL     1      -8.071  -2.106 -22.351  1.00  0.00     0.097 C 
ATOM      6  C   UNL     1      -9.495  -2.084 -21.793  1.00  0.00     0.168 C 
ENDROOT
BRANCH   2   7
ATOM      7  O   UNL     1     -10.799  -0.578 -23.935  1.00  0.00    -0.389 OA
ATOM      8  H   UNL     1      -9.967  -0.067 -23.865  1.00  0.00     0.211 HD
ENDBRANCH   2   7
BRANCH   6   9
ATOM      9  O   UNL     1      -9.836  -0.725 -21.444  1.00  0.00    -0.378 OA
ATOM     10  H   UNL     1      -9.855  -0.207 -22.284  1.00  0.00     0.212 HD
ENDBRANCH   6   9
BRANCH   6  11
ATOM     11  C   UNL     1      -9.550  -2.905 -20.497  1.00  0.00     0.335 C 
ATOM     12  O   UNL     1     -10.023  -2.518 -19.439  1.00  0.00    -0.249 OA
BRANCH  11  13
ATOM     13  O   UNL     1      -9.010  -4.139 -20.666  1.00  0.00    -0.479 OA
ATOM     14  H   UNL     1      -8.112  -4.007 -21.059  1.00  0.00     0.296 HD
ENDBRANCH  11  13
ENDBRANCH   6  11
BRANCH   3  15
ATOM     15  O   UNL     1      -8.938  -1.246 -25.933  1.00  0.00    -0.452 OA
BRANCH  15  16
ATOM     16  C   UNL     1      -9.077  -1.950 -27.081  1.00  0.00     0.331 C 
ATOM     17  O   UNL     1      -8.909  -3.149 -27.214  1.00  0.00    -0.247 OA
BRANCH  16  18
ATOM     18  C   UNL     1      -9.476  -1.009 -28.145  1.00  0.00     0.094 C 
ATOM     19  C   UNL     1      -8.783  -0.969 -29.293  1.00  0.00     0.016 C 
BRANCH  19  20
ATOM     20  C   UNL     1      -9.102  -0.074 -30.415  1.00  0.00    -0.021 A 
ATOM     21  C   UNL     1     -10.082  -0.476 -31.337  1.00  0.00     0.058 A 
ATOM     22  C   UNL     1      -8.422   1.138 -30.624  1.00  0.00     0.012 A 
ATOM     23  C   UNL     1     -10.385   0.341 -32.423  1.00  0.00     0.157 A 
ATOM     24  C   UNL     1      -8.732   1.952 -31.718  1.00  0.00     0.051 A 
ATOM     25  C   UNL     1      -9.714   1.546 -32.607  1.00  0.00     0.157 A 
BRANCH  23  26
ATOM     26  O   UNL     1     -11.338  -0.001 -33.343  1.00  0.00    -0.504 OA
ATOM     27  H   UNL     1     -12.191  -0.086 -32.882  1.00  0.00     0.293 HD
ENDBRANCH  23  26
BRANCH  25  28
ATOM     28  O   UNL     1     -10.016   2.340 -33.675  1.00  0.00    -0.504 OA
ATOM     29  H   UNL     1     -10.358   3.166 -33.279  1.00  0.00     0.293 HD
ENDBRANCH  25  28
ENDBRANCH  19  20
ENDBRANCH  16  18
ENDBRANCH  15  16
ENDBRANCH   3  15
BRANCH   4  30
ATOM     30  O   UNL     1      -6.626  -1.676 -24.204  1.00  0.00    -0.455 OA
BRANCH  30  31
ATOM     31  C   UNL     1      -5.870  -0.593 -24.501  1.00  0.00     0.331 C 
ATOM     32  O   UNL     1      -5.755   0.419 -23.824  1.00  0.00    -0.247 OA
BRANCH  31  33
ATOM     33  C   UNL     1      -5.166  -0.752 -25.790  1.00  0.00     0.094 C 
ATOM     34  C   UNL     1      -5.630  -0.309 -26.969  1.00  0.00     0.016 C 
BRANCH  34  35
ATOM     35  C   UNL     1      -4.898  -0.466 -28.233  1.00  0.00    -0.021 A 
ATOM     36  C   UNL     1      -4.837   0.621 -29.119  1.00  0.00     0.058 A 
ATOM     37  C   UNL     1      -4.304  -1.687 -28.599  1.00  0.00     0.012 A 
ATOM     38  C   UNL     1      -4.167   0.483 -30.331  1.00  0.00     0.157 A 
ATOM     39  C   UNL     1      -3.635  -1.815 -29.819  1.00  0.00     0.051 A 
ATOM     40  C   UNL     1      -3.570  -0.727 -30.674  1.00  0.00     0.157 A 
BRANCH  38  41
ATOM     41  O   UNL     1      -4.068   1.514 -31.225  1.00  0.00    -0.504 OA
ATOM     42  H   UNL     1      -4.384   1.201 -32.090  1.00  0.00     0.293 HD
ENDBRANCH  38  41
BRANCH  40  43
ATOM     43  O   UNL     1      -2.917  -0.853 -31.865  1.00  0.00    -0.504 OA
ATOM     44  H   UNL     1      -3.577  -1.255 -32.466  1.00  0.00     0.293 HD
ENDBRANCH  40  43
ENDBRANCH  34  35
ENDBRANCH  31  33
ENDBRANCH  30  31
ENDBRANCH   4  30
TORSDOF 16
ENDMDL
MODEL 5
REMARK VINA RESULT:      -8.7      2.167      4.420
REMARK SMILES O=C(/C=C/c1ccc(O)c(O)c1)O[C@@H]1[C@H](O)C[C@@](O)(C(=O)O)C[C@H]1OC(=O)/C=C/c1ccc(O)c(O)c1
REMARK SMILES IDX 17 1 15 2 14 3 24 4 23 5 18 6 16 7 19 9 20 11 21 12 22 13
REMARK SMILES IDX 13 15 2 16 1 17 3 18 4 19 5 20 12 21 6 22 10 23 7 24 8 25
REMARK SMILES IDX 11 26 9 28 25 30 26 31 27 32 28 33 29 34 30 35 37 36 31 37
REMARK SMILES IDX 35 38 32 39 33 40 36 41 34 43
REMARK H PARENT 16 8 19 10 22 14 11 27 9 29 36 42 34 44
ROOT
ATOM      1  C   UNL     1      -8.623  -2.280 -20.855  1.00  0.00     0.083 C 
ATOM      2  C   UNL     1      -7.783  -2.625 -22.082  1.00  0.00     0.162 C 
ATOM      3  C   UNL     1      -7.394  -1.361 -22.868  1.00  0.00     0.246 C 
ATOM      4  C   UNL     1      -8.644  -0.557 -23.280  1.00  0.00     0.223 C 
ATOM      5  C   UNL     1      -9.514  -0.230 -22.062  1.00  0.00     0.097 C 
ATOM      6  C   UNL     1      -9.870  -1.474 -21.247  1.00  0.00     0.168 C 
ENDROOT
BRANCH   2   7
ATOM      7  O   UNL     1      -8.569  -3.498 -22.910  1.00  0.00    -0.389 OA
ATOM      8  H   UNL     1      -9.375  -2.997 -23.150  1.00  0.00     0.211 HD
ENDBRANCH   2   7
BRANCH   6   9
ATOM      9  O   UNL     1     -10.781  -2.288 -22.016  1.00  0.00    -0.378 OA
ATOM     10  H   UNL     1     -11.325  -2.800 -21.372  1.00  0.00     0.212 HD
ENDBRANCH   6   9
BRANCH   6  11
ATOM     11  C   UNL     1     -10.616  -1.054 -19.972  1.00  0.00     0.335 C 
ATOM     12  O   UNL     1     -10.672  -1.709 -18.942  1.00  0.00    -0.249 OA
BRANCH  11  13
ATOM     13  O   UNL     1     -11.211   0.158 -20.119  1.00  0.00    -0.479 OA
ATOM     14  H   UNL     1     -11.362   0.515 -19.209  1.00  0.00     0.296 HD
ENDBRANCH  11  13
ENDBRANCH   6  11
BRANCH   3  15
ATOM     15  O   UNL     1      -6.689  -1.757 -24.066  1.00  0.00    -0.452 OA
BRANCH  15  16
ATOM     16  C   UNL     1      -5.620  -0.998 -24.400  1.00  0.00     0.331 C 
ATOM     17  O   UNL     1      -5.035  -0.217 -23.670  1.00  0.00    -0.247 OA
BRANCH  16  18
ATOM     18  C   UNL     1      -5.279  -1.287 -25.806  1.00  0.00     0.094 C 
ATOM     19  C   UNL     1      -4.514  -0.427 -26.496  1.00  0.00     0.016 C 
BRANCH  19  20
ATOM     20  C   UNL     1      -4.114  -0.625 -27.897  1.00  0.00    -0.021 A 
ATOM     21  C   UNL     1      -2.930  -0.019 -28.349  1.00  0.00     0.058 A 
ATOM     22  C   UNL     1      -4.902  -1.350 -28.807  1.00  0.00     0.012 A 
ATOM     23  C   UNL     1      -2.541  -0.168 -29.678  1.00  0.00     0.157 A 
ATOM     24  C   UNL     1      -4.504  -1.495 -30.139  1.00  0.00     0.051 A 
ATOM     25  C   UNL     1      -3.325  -0.904 -30.562  1.00  0.00     0.157 A 
BRANCH  23  26
ATOM     26  O   UNL     1      -1.393   0.393 -30.164  1.00  0.00    -0.504 OA
ATOM     27  H   UNL     1      -1.532   0.610 -31.102  1.00  0.00     0.293 HD
ENDBRANCH  23  26
BRANCH  25  28
ATOM     28  O   UNL     1      -2.937  -1.044 -31.863  1.00  0.00    -0.504 OA
ATOM     29  H   UNL     1      -2.103  -1.553 -31.818  1.00  0.00     0.293 HD
ENDBRANCH  25  28
ENDBRANCH  19  20
ENDBRANCH  16  18
ENDBRANCH  15  16
ENDBRANCH   3  15
BRANCH   4  30
ATOM     30  O   UNL     1      -8.235   0.710 -23.847  1.00  0.00    -0.455 OA
BRANCH  30  31
ATOM     31  C   UNL     1      -8.910   1.137 -24.941  1.00  0.00     0.331 C 
ATOM     32  O   UNL     1      -9.439   2.229 -25.085  1.00  0.00    -0.247 OA
BRANCH  31  33
ATOM     33  C   UNL     1      -8.955   0.104 -25.996  1.00  0.00     0.094 C 
ATOM     34  C   UNL     1      -8.354   0.213 -27.191  1.00  0.00     0.016 C 
BRANCH  34  35
ATOM     35  C   UNL     1      -8.401  -0.841 -28.215  1.00  0.00    -0.021 A 
ATOM     36  C   UNL     1      -8.394  -2.183 -27.804  1.00  0.00     0.058 A 
ATOM     37  C   UNL     1      -8.400  -0.542 -29.588  1.00  0.00     0.012 A 
ATOM     38  C   UNL     1      -8.416  -3.195 -28.759  1.00  0.00     0.157 A 
ATOM     39  C   UNL     1      -8.420  -1.565 -30.540  1.00  0.00     0.051 A 
ATOM     40  C   UNL     1      -8.430  -2.883 -30.116  1.00  0.00     0.157 A 
BRANCH  38  41
ATOM     41  O   UNL     1      -8.422  -4.518 -28.412  1.00  0.00    -0.504 OA
ATOM     42  H   UNL     1      -9.265  -4.715 -27.969  1.00  0.00     0.293 HD
ENDBRANCH  38  41
BRANCH  40  43
ATOM     43  O   UNL     1      -8.449  -3.882 -31.045  1.00  0.00    -0.504 OA
ATOM     44  H   UNL     1      -7.747  -4.500 -30.757  1.00  0.00     0.293 HD
ENDBRANCH  40  43
ENDBRANCH  34  35
ENDBRANCH  31  33
ENDBRANCH  30  31
ENDBRANCH   4  30
TORSDOF 16
ENDMDL
MODEL 6
REMARK VINA RESULT:      -8.7      2.248      2.904
REMARK SMILES O=C(/C=C/c1ccc(O)c(O)c1)O[C@@H]1[C@H](O)C[C@@](O)(C(=O)O)C[C@H]1OC(=O)/C=C/c1ccc(O)c(O)c1
REMARK SMILES IDX 17 1 15 2 14 3 24 4 23 5 18 6 16 7 19 9 20 11 21 12 22 13
REMARK SMILES IDX 13 15 2 16 1 17 3 18 4 19 5 20 12 21 6 22 10 23 7 24 8 25
REMARK SMILES IDX 11 26 9 28 25 30 26 31 27 32 28 33 29 34 30 35 37 36 31 37
REMARK SMILES IDX 35 38 32 39 33 40 36 41 34 43
REMARK H PARENT 16 8 19 10 22 14 11 27 9 29 36 42 34 44
ROOT
ATOM      1  C   UNL     1     -10.722  -3.489 -22.911  1.00  0.00     0.083 C 
ATOM      2  C   UNL     1     -11.023  -3.139 -24.366  1.00  0.00     0.162 C 
ATOM      3  C   UNL     1      -9.745  -2.736 -25.121  1.00  0.00     0.246 C 
ATOM      4  C   UNL     1      -9.034  -1.560 -24.421  1.00  0.00     0.223 C 
ATOM      5  C   UNL     1      -8.752  -1.886 -22.951  1.00  0.00     0.097 C 
ATOM      6  C   UNL     1     -10.007  -2.330 -22.199  1.00  0.00     0.168 C 
ENDROOT
BRANCH   2   7
ATOM      7  O   UNL     1     -11.957  -2.047 -24.361  1.00  0.00    -0.389 OA
ATOM      8  H   UNL     1     -12.791  -2.395 -24.738  1.00  0.00     0.211 HD
ENDBRANCH   2   7
BRANCH   6   9
ATOM      9  O   UNL     1     -10.891  -1.198 -22.059  1.00  0.00    -0.378 OA
ATOM     10  H   UNL     1     -10.602  -0.704 -21.255  1.00  0.00     0.212 HD
ENDBRANCH   6   9
BRANCH   6  11
ATOM     11  C   UNL     1      -9.624  -2.775 -20.780  1.00  0.00     0.335 C 
ATOM     12  O   UNL     1      -9.823  -2.129 -19.763  1.00  0.00    -0.249 OA
BRANCH  11  13
ATOM     13  O   UNL     1      -9.034  -3.998 -20.784  1.00  0.00    -0.479 OA
ATOM     14  H   UNL     1      -9.760  -4.666 -20.714  1.00  0.00     0.296 HD
ENDBRANCH  11  13
ENDBRANCH   6  11
BRANCH   3  15
ATOM     15  O   UNL     1     -10.106  -2.322 -26.458  1.00  0.00    -0.452 OA
BRANCH  15  16
ATOM     16  C   UNL     1      -9.757  -3.169 -27.454  1.00  0.00     0.331 C 
ATOM     17  O   UNL     1      -9.830  -4.385 -27.423  1.00  0.00    -0.247 OA
BRANCH  16  18
ATOM     18  C   UNL     1      -9.277  -2.360 -28.591  1.00  0.00     0.094 C 
ATOM     19  C   UNL     1      -9.824  -1.159 -28.833  1.00  0.00     0.016 C 
BRANCH  19  20
ATOM     20  C   UNL     1      -9.414  -0.276 -29.934  1.00  0.00    -0.021 A 
ATOM     21  C   UNL     1     -10.403   0.225 -30.797  1.00  0.00     0.058 A 
ATOM     22  C   UNL     1      -8.067   0.037 -30.183  1.00  0.00     0.012 A 
ATOM     23  C   UNL     1     -10.040   1.043 -31.863  1.00  0.00     0.157 A 
ATOM     24  C   UNL     1      -7.711   0.859 -31.257  1.00  0.00     0.051 A 
ATOM     25  C   UNL     1      -8.703   1.356 -32.086  1.00  0.00     0.157 A 
BRANCH  23  26
ATOM     26  O   UNL     1     -10.967   1.563 -32.725  1.00  0.00    -0.504 OA
ATOM     27  H   UNL     1     -11.548   2.161 -32.224  1.00  0.00     0.293 HD
ENDBRANCH  23  26
BRANCH  25  28
ATOM     28  O   UNL     1      -8.356   2.158 -33.135  1.00  0.00    -0.504 OA
ATOM     29  H   UNL     1      -8.715   1.704 -33.922  1.00  0.00     0.293 HD
ENDBRANCH  25  28
ENDBRANCH  19  20
ENDBRANCH  16  18
ENDBRANCH  15  16
ENDBRANCH   3  15
BRANCH   4  30
ATOM     30  O   UNL     1      -7.748  -1.335 -25.048  1.00  0.00    -0.455 OA
BRANCH  30  31
ATOM     31  C   UNL     1      -7.458  -0.063 -25.409  1.00  0.00     0.331 C 
ATOM     32  O   UNL     1      -7.790   0.953 -24.815  1.00  0.00    -0.247 OA
BRANCH  31  33
ATOM     33  C   UNL     1      -6.669  -0.013 -26.657  1.00  0.00     0.094 C 
ATOM     34  C   UNL     1      -5.672  -0.860 -26.958  1.00  0.00     0.016 C 
BRANCH  34  35
ATOM     35  C   UNL     1      -4.916  -0.797 -28.217  1.00  0.00    -0.021 A 
ATOM     36  C   UNL     1      -4.808   0.435 -28.880  1.00  0.00     0.058 A 
ATOM     37  C   UNL     1      -4.347  -1.944 -28.798  1.00  0.00     0.012 A 
ATOM     38  C   UNL     1      -4.115   0.509 -30.085  1.00  0.00     0.157 A 
ATOM     39  C   UNL     1      -3.655  -1.859 -30.009  1.00  0.00     0.051 A 
ATOM     40  C   UNL     1      -3.543  -0.632 -30.641  1.00  0.00     0.157 A 
BRANCH  38  41
ATOM     41  O   UNL     1      -3.971   1.687 -30.765  1.00  0.00    -0.504 OA
ATOM     42  H   UNL     1      -3.440   2.293 -30.220  1.00  0.00     0.293 HD
ENDBRANCH  38  41
BRANCH  40  43
ATOM     43  O   UNL     1      -2.868  -0.550 -31.824  1.00  0.00    -0.504 OA
ATOM     44  H   UNL     1      -3.313  -1.198 -32.407  1.00  0.00     0.293 HD
ENDBRANCH  40  43
ENDBRANCH  34  35
ENDBRANCH  31  33
ENDBRANCH  30  31
ENDBRANCH   4  30
TORSDOF 16
ENDMDL
MODEL 7
REMARK VINA RESULT:      -8.6      2.333      3.526
REMARK SMILES O=C(/C=C/c1ccc(O)c(O)c1)O[C@@H]1[C@H](O)C[C@@](O)(C(=O)O)C[C@H]1OC(=O)/C=C/c1ccc(O)c(O)c1
REMARK SMILES IDX 17 1 15 2 14 3 24 4 23 5 18 6 16 7 19 9 20 11 21 12 22 13
REMARK SMILES IDX 13 15 2 16 1 17 3 18 4 19 5 20 12 21 6 22 10 23 7 24 8 25
REMARK SMILES IDX 11 26 9 28 25 30 26 31 27 32 28 33 29 34 30 35 37 36 31 37
REMARK SMILES IDX 35 38 32 39 33 40 36 41 34 43
REMARK H PARENT 16 8 19 10 22 14 11 27 9 29 36 42 34 44
ROOT
ATOM      1  C   UNL     1     -11.613  -3.363 -24.508  1.00  0.00     0.083 C 
ATOM      2  C   UNL     1     -10.366  -2.495 -24.365  1.00  0.00     0.162 C 
ATOM      3  C   UNL     1      -9.858  -2.015 -25.735  1.00  0.00     0.246 C 
ATOM      4  C   UNL     1      -9.579  -3.207 -26.673  1.00  0.00     0.223 C 
ATOM      5  C   UNL     1     -10.814  -4.105 -26.802  1.00  0.00     0.097 C 
ATOM      6  C   UNL     1     -11.355  -4.553 -25.444  1.00  0.00     0.168 C 
ENDROOT
BRANCH   2   7
ATOM      7  O   UNL     1      -9.359  -3.291 -23.718  1.00  0.00    -0.389 OA
ATOM      8  H   UNL     1      -9.741  -4.186 -23.613  1.00  0.00     0.211 HD
ENDBRANCH   2   7
BRANCH   6   9
ATOM      9  O   UNL     1     -10.415  -5.473 -24.850  1.00  0.00    -0.378 OA
ATOM     10  H   UNL     1      -9.895  -4.964 -24.183  1.00  0.00     0.212 HD
ENDBRANCH   6   9
BRANCH   6  11
ATOM     11  C   UNL     1     -12.667  -5.325 -25.645  1.00  0.00     0.335 C 
ATOM     12  O   UNL     1     -13.532  -5.474 -24.797  1.00  0.00    -0.249 OA
BRANCH  11  13
ATOM     13  O   UNL     1     -12.761  -5.827 -26.903  1.00  0.00    -0.479 OA
ATOM     14  H   UNL     1     -11.960  -5.519 -27.395  1.00  0.00     0.296 HD
ENDBRANCH  11  13
ENDBRANCH   6  11
BRANCH   3  15
ATOM     15  O   UNL     1      -8.625  -1.285 -25.545  1.00  0.00    -0.452 OA
BRANCH  15  16
ATOM     16  C   UNL     1      -8.698   0.055 -25.723  1.00  0.00     0.331 C 
ATOM     17  O   UNL     1      -9.497   0.808 -25.194  1.00  0.00    -0.247 OA
BRANCH  16  18
ATOM     18  C   UNL     1      -7.633   0.447 -26.665  1.00  0.00     0.094 C 
ATOM     19  C   UNL     1      -7.953   0.821 -27.914  1.00  0.00     0.016 C 
BRANCH  19  20
ATOM     20  C   UNL     1      -6.969   1.234 -28.925  1.00  0.00    -0.021 A 
ATOM     21  C   UNL     1      -5.873   2.012 -28.519  1.00  0.00     0.058 A 
ATOM     22  C   UNL     1      -7.120   0.924 -30.288  1.00  0.00     0.012 A 
ATOM     23  C   UNL     1      -4.941   2.438 -29.460  1.00  0.00     0.157 A 
ATOM     24  C   UNL     1      -6.179   1.357 -31.227  1.00  0.00     0.051 A 
ATOM     25  C   UNL     1      -5.096   2.109 -30.803  1.00  0.00     0.157 A 
BRANCH  23  26
ATOM     26  O   UNL     1      -3.851   3.189 -29.113  1.00  0.00    -0.504 OA
ATOM     27  H   UNL     1      -4.077   4.128 -29.230  1.00  0.00     0.293 HD
ENDBRANCH  23  26
BRANCH  25  28
ATOM     28  O   UNL     1      -4.178   2.532 -31.720  1.00  0.00    -0.504 OA
ATOM     29  H   UNL     1      -3.324   2.190 -31.390  1.00  0.00     0.293 HD
ENDBRANCH  25  28
ENDBRANCH  19  20
ENDBRANCH  16  18
ENDBRANCH  15  16
ENDBRANCH   3  15
BRANCH   4  30
ATOM     30  O   UNL     1      -9.287  -2.714 -28.002  1.00  0.00    -0.455 OA
BRANCH  30  31
ATOM     31  C   UNL     1      -8.415  -3.438 -28.745  1.00  0.00     0.331 C 
ATOM     32  O   UNL     1      -8.557  -4.598 -29.103  1.00  0.00    -0.247 OA
BRANCH  31  33
ATOM     33  C   UNL     1      -7.211  -2.656 -29.094  1.00  0.00     0.094 C 
ATOM     34  C   UNL     1      -6.150  -2.497 -28.288  1.00  0.00     0.016 C 
BRANCH  34  35
ATOM     35  C   UNL     1      -4.957  -1.728 -28.671  1.00  0.00    -0.021 A 
ATOM     36  C   UNL     1      -4.567  -1.713 -30.019  1.00  0.00     0.058 A 
ATOM     37  C   UNL     1      -4.172  -1.054 -27.719  1.00  0.00     0.012 A 
ATOM     38  C   UNL     1      -3.427  -1.009 -30.397  1.00  0.00     0.157 A 
ATOM     39  C   UNL     1      -3.029  -0.351 -28.108  1.00  0.00     0.051 A 
ATOM     40  C   UNL     1      -2.668  -0.333 -29.446  1.00  0.00     0.157 A 
BRANCH  38  41
ATOM     41  O   UNL     1      -3.009  -0.952 -31.698  1.00  0.00    -0.504 OA
ATOM     42  H   UNL     1      -2.447  -0.166 -31.806  1.00  0.00     0.293 HD
ENDBRANCH  38  41
BRANCH  40  43
ATOM     43  O   UNL     1      -1.551   0.353 -29.825  1.00  0.00    -0.504 OA
ATOM     44  H   UNL     1      -1.758   1.289 -29.628  1.00  0.00     0.293 HD
ENDBRANCH  40  43
ENDBRANCH  34  35
ENDBRANCH  31  33
ENDBRANCH  30  31
ENDBRANCH   4  30
TORSDOF 16
ENDMDL
MODEL 8
REMARK VINA RESULT:      -8.5      2.218      4.482
REMARK SMILES O=C(/C=C/c1ccc(O)c(O)c1)O[C@@H]1[C@H](O)C[C@@](O)(C(=O)O)C[C@H]1OC(=O)/C=C/c1ccc(O)c(O)c1
REMARK SMILES IDX 17 1 15 2 14 3 24 4 23 5 18 6 16 7 19 9 20 11 21 12 22 13
REMARK SMILES IDX 13 15 2 16 1 17 3 18 4 19 5 20 12 21 6 22 10 23 7 24 8 25
REMARK SMILES IDX 11 26 9 28 25 30 26 31 27 32 28 33 29 34 30 35 37 36 31 37
REMARK SMILES IDX 35 38 32 39 33 40 36 41 34 43
REMARK H PARENT 16 8 19 10 22 14 11 27 9 29 36 42 34 44
ROOT
ATOM      1  C   UNL     1      -7.963  -1.390 -22.125  1.00  0.00     0.083 C 
ATOM      2  C   UNL     1      -7.334  -1.026 -23.467  1.00  0.00     0.162 C 
ATOM      3  C   UNL     1      -8.406  -0.825 -24.551  1.00  0.00     0.246 C 
ATOM      4  C   UNL     1      -9.293  -2.078 -24.695  1.00  0.00     0.223 C 
ATOM      5  C   UNL     1      -9.907  -2.474 -23.348  1.00  0.00     0.097 C 
ATOM      6  C   UNL     1      -8.855  -2.634 -22.250  1.00  0.00     0.168 C 
ENDROOT
BRANCH   2   7
ATOM      7  O   UNL     1      -6.456  -2.102 -23.836  1.00  0.00    -0.389 OA
ATOM      8  H   UNL     1      -6.662  -2.845 -23.234  1.00  0.00     0.211 HD
ENDBRANCH   2   7
BRANCH   6   9
ATOM      9  O   UNL     1      -8.059  -3.804 -22.537  1.00  0.00    -0.378 OA
ATOM     10  H   UNL     1      -8.685  -4.557 -22.656  1.00  0.00     0.212 HD
ENDBRANCH   6   9
BRANCH   6  11
ATOM     11  C   UNL     1      -9.553  -2.888 -20.906  1.00  0.00     0.335 C 
ATOM     12  O   UNL     1     -10.353  -2.133 -20.376  1.00  0.00    -0.249 OA
BRANCH  11  13
ATOM     13  O   UNL     1      -9.177  -4.076 -20.367  1.00  0.00    -0.479 OA
ATOM     14  H   UNL     1      -9.593  -4.127 -19.470  1.00  0.00     0.296 HD
ENDBRANCH  11  13
ENDBRANCH   6  11
BRANCH   3  15
ATOM     15  O   UNL     1      -7.749  -0.582 -25.815  1.00  0.00    -0.452 OA
BRANCH  15  16
ATOM     16  C   UNL     1      -7.833   0.682 -26.292  1.00  0.00     0.331 C 
ATOM     17  O   UNL     1      -8.631   1.533 -25.939  1.00  0.00    -0.247 OA
BRANCH  16  18
ATOM     18  C   UNL     1      -6.781   0.854 -27.312  1.00  0.00     0.094 C 
ATOM     19  C   UNL     1      -5.845  -0.094 -27.471  1.00  0.00     0.016 C 
BRANCH  19  20
ATOM     20  C   UNL     1      -4.760  -0.021 -28.460  1.00  0.00    -0.021 A 
ATOM     21  C   UNL     1      -4.978   0.700 -29.645  1.00  0.00     0.058 A 
ATOM     22  C   UNL     1      -3.537  -0.692 -28.283  1.00  0.00     0.012 A 
ATOM     23  C   UNL     1      -3.977   0.764 -30.609  1.00  0.00     0.157 A 
ATOM     24  C   UNL     1      -2.537  -0.623 -29.257  1.00  0.00     0.051 A 
ATOM     25  C   UNL     1      -2.766   0.108 -30.411  1.00  0.00     0.157 A 
BRANCH  23  26
ATOM     26  O   UNL     1      -4.137   1.461 -31.775  1.00  0.00    -0.504 OA
ATOM     27  H   UNL     1      -4.932   1.126 -32.225  1.00  0.00     0.293 HD
ENDBRANCH  23  26
BRANCH  25  28
ATOM     28  O   UNL     1      -1.789   0.174 -31.363  1.00  0.00    -0.504 OA
ATOM     29  H   UNL     1      -2.255   0.456 -32.175  1.00  0.00     0.293 HD
ENDBRANCH  25  28
ENDBRANCH  19  20
ENDBRANCH  16  18
ENDBRANCH  15  16
ENDBRANCH   3  15
BRANCH   4  30
ATOM     30  O   UNL     1     -10.398  -1.785 -25.582  1.00  0.00    -0.455 OA
BRANCH  30  31
ATOM     31  C   UNL     1     -10.681  -2.708 -26.532  1.00  0.00     0.331 C 
ATOM     32  O   UNL     1     -11.268  -3.767 -26.362  1.00  0.00    -0.247 OA
BRANCH  31  33
ATOM     33  C   UNL     1     -10.183  -2.298 -27.861  1.00  0.00     0.094 C 
ATOM     34  C   UNL     1     -10.259  -1.049 -28.348  1.00  0.00     0.016 C 
BRANCH  34  35
ATOM     35  C   UNL     1      -9.737  -0.668 -29.668  1.00  0.00    -0.021 A 
ATOM     36  C   UNL     1     -10.598  -0.034 -30.578  1.00  0.00     0.058 A 
ATOM     37  C   UNL     1      -8.421  -0.966 -30.059  1.00  0.00     0.012 A 
ATOM     38  C   UNL     1     -10.129   0.314 -31.841  1.00  0.00     0.157 A 
ATOM     39  C   UNL     1      -7.959  -0.614 -31.330  1.00  0.00     0.051 A 
ATOM     40  C   UNL     1      -8.817   0.026 -32.209  1.00  0.00     0.157 A 
BRANCH  38  41
ATOM     41  O   UNL     1     -10.922   0.943 -32.760  1.00  0.00    -0.504 OA
ATOM     42  H   UNL     1     -11.768   1.164 -32.335  1.00  0.00     0.293 HD
ENDBRANCH  38  41
BRANCH  40  43
ATOM     43  O   UNL     1      -8.366   0.370 -33.450  1.00  0.00    -0.504 OA
ATOM     44  H   UNL     1      -8.268   1.343 -33.416  1.00  0.00     0.293 HD
ENDBRANCH  40  43
ENDBRANCH  34  35
ENDBRANCH  31  33
ENDBRANCH  30  31
ENDBRANCH   4  30
TORSDOF 16
ENDMDL
MODEL 9
REMARK VINA RESULT:      -8.1      3.399      8.062
REMARK SMILES O=C(/C=C/c1ccc(O)c(O)c1)O[C@@H]1[C@H](O)C[C@@](O)(C(=O)O)C[C@H]1OC(=O)/C=C/c1ccc(O)c(O)c1
REMARK SMILES IDX 17 1 15 2 14 3 24 4 23 5 18 6 16 7 19 9 20 11 21 12 22 13
REMARK SMILES IDX 13 15 2 16 1 17 3 18 4 19 5 20 12 21 6 22 10 23 7 24 8 25
REMARK SMILES IDX 11 26 9 28 25 30 26 31 27 32 28 33 29 34 30 35 37 36 31 37
REMARK SMILES IDX 35 38 32 39 33 40 36 41 34 43
REMARK H PARENT 16 8 19 10 22 14 11 27 9 29 36 42 34 44
ROOT
ATOM      1  C   UNL     1      -3.976  -1.083 -29.361  1.00  0.00     0.083 C 
ATOM      2  C   UNL     1      -4.815  -0.849 -28.107  1.00  0.00     0.162 C 
ATOM      3  C   UNL     1      -5.492   0.532 -28.137  1.00  0.00     0.246 C 
ATOM      4  C   UNL     1      -4.451   1.658 -28.308  1.00  0.00     0.223 C 
ATOM      5  C   UNL     1      -3.582   1.419 -29.547  1.00  0.00     0.097 C 
ATOM      6  C   UNL     1      -2.938   0.032 -29.551  1.00  0.00     0.168 C 
ENDROOT
BRANCH   2   7
ATOM      7  O   UNL     1      -3.932  -0.940 -26.977  1.00  0.00    -0.389 OA
ATOM      8  H   UNL     1      -3.282  -1.640 -27.190  1.00  0.00     0.211 HD
ENDBRANCH   2   7
BRANCH   6   9
ATOM      9  O   UNL     1      -1.941  -0.020 -28.508  1.00  0.00    -0.378 OA
ATOM     10  H   UNL     1      -1.860  -0.964 -28.232  1.00  0.00     0.212 HD
ENDBRANCH   6   9
BRANCH   6  11
ATOM     11  C   UNL     1      -2.203  -0.188 -30.881  1.00  0.00     0.335 C 
ATOM     12  O   UNL     1      -1.016   0.023 -31.072  1.00  0.00    -0.249 OA
BRANCH  11  13
ATOM     13  O   UNL     1      -3.041  -0.662 -31.839  1.00  0.00    -0.479 OA
ATOM     14  H   UNL     1      -2.515  -1.292 -32.392  1.00  0.00     0.296 HD
ENDBRANCH  11  13
ENDBRANCH   6  11
BRANCH   3  15
ATOM     15  O   UNL     1      -6.186   0.737 -26.886  1.00  0.00    -0.452 OA
BRANCH  15  16
ATOM     16  C   UNL     1      -7.531   0.595 -26.927  1.00  0.00     0.331 C 
ATOM     17  O   UNL     1      -8.354   1.436 -26.610  1.00  0.00    -0.247 OA
BRANCH  16  18
ATOM     18  C   UNL     1      -7.830  -0.759 -27.430  1.00  0.00     0.094 C 
ATOM     19  C   UNL     1      -8.850  -0.943 -28.283  1.00  0.00     0.016 C 
BRANCH  19  20
ATOM     20  C   UNL     1      -9.227  -2.248 -28.846  1.00  0.00    -0.021 A 
ATOM     21  C   UNL     1      -9.429  -3.325 -27.968  1.00  0.00     0.058 A 
ATOM     22  C   UNL     1      -9.335  -2.464 -30.231  1.00  0.00     0.012 A 
ATOM     23  C   UNL     1      -9.761  -4.577 -28.476  1.00  0.00     0.157 A 
ATOM     24  C   UNL     1      -9.669  -3.725 -30.732  1.00  0.00     0.051 A 
ATOM     25  C   UNL     1      -9.881  -4.771 -29.849  1.00  0.00     0.157 A 
BRANCH  23  26
ATOM     26  O   UNL     1      -9.978  -5.655 -27.662  1.00  0.00    -0.504 OA
ATOM     27  H   UNL     1     -10.796  -6.096 -27.951  1.00  0.00     0.293 HD
ENDBRANCH  23  26
BRANCH  25  28
ATOM     28  O   UNL     1     -10.206  -6.003 -30.339  1.00  0.00    -0.504 OA
ATOM     29  H   UNL     1     -11.154  -6.111 -30.126  1.00  0.00     0.293 HD
ENDBRANCH  25  28
ENDBRANCH  19  20
ENDBRANCH  16  18
ENDBRANCH  15  16
ENDBRANCH   3  15
BRANCH   4  30
ATOM     30  O   UNL     1      -5.135   2.916 -28.520  1.00  0.00    -0.455 OA
BRANCH  30  31
ATOM     31  C   UNL     1      -5.310   3.307 -29.805  1.00  0.00     0.331 C 
ATOM     32  O   UNL     1      -4.575   4.044 -30.445  1.00  0.00    -0.247 OA
BRANCH  31  33
ATOM     33  C   UNL     1      -6.541   2.736 -30.389  1.00  0.00     0.094 C 
ATOM     34  C   UNL     1      -6.575   1.977 -31.496  1.00  0.00     0.016 C 
BRANCH  34  35
ATOM     35  C   UNL     1      -7.814   1.407 -32.043  1.00  0.00    -0.021 A 
ATOM     36  C   UNL     1      -8.899   1.191 -31.179  1.00  0.00     0.058 A 
ATOM     37  C   UNL     1      -7.923   1.027 -33.392  1.00  0.00     0.012 A 
ATOM     38  C   UNL     1     -10.072   0.631 -31.674  1.00  0.00     0.157 A 
ATOM     39  C   UNL     1      -9.105   0.463 -33.880  1.00  0.00     0.051 A 
ATOM     40  C   UNL     1     -10.171   0.273 -33.016  1.00  0.00     0.157 A 
BRANCH  38  41
ATOM     41  O   UNL     1     -11.162   0.411 -30.878  1.00  0.00    -0.504 OA
ATOM     42  H   UNL     1     -11.947   0.335 -31.446  1.00  0.00     0.293 HD
ENDBRANCH  38  41
BRANCH  40  43
ATOM     43  O   UNL     1     -11.325  -0.277 -33.493  1.00  0.00    -0.504 OA
ATOM     44  H   UNL     1     -11.459   0.148 -34.364  1.00  0.00     0.293 HD
ENDBRANCH  40  43
ENDBRANCH  34  35
ENDBRANCH  31  33
ENDBRANCH  30  31
ENDBRANCH   4  30
TORSDOF 16
ENDMDL
MODEL 10
REMARK VINA RESULT:      -8.0      2.386      4.735
REMARK SMILES O=C(/C=C/c1ccc(O)c(O)c1)O[C@@H]1[C@H](O)C[C@@](O)(C(=O)O)C[C@H]1OC(=O)/C=C/c1ccc(O)c(O)c1
REMARK SMILES IDX 17 1 15 2 14 3 24 4 23 5 18 6 16 7 19 9 20 11 21 12 22 13
REMARK SMILES IDX 13 15 2 16 1 17 3 18 4 19 5 20 12 21 6 22 10 23 7 24 8 25
REMARK SMILES IDX 11 26 9 28 25 30 26 31 27 32 28 33 29 34 30 35 37 36 31 37
REMARK SMILES IDX 35 38 32 39 33 40 36 41 34 43
REMARK H PARENT 16 8 19 10 22 14 11 27 9 29 36 42 34 44
ROOT
ATOM      1  C   UNL     1      -9.826   1.983 -21.640  1.00  0.00     0.083 C 
ATOM      2  C   UNL     1      -9.523   0.519 -21.948  1.00  0.00     0.162 C 
ATOM      3  C   UNL     1      -8.769   0.373 -23.281  1.00  0.00     0.246 C 
ATOM      4  C   UNL     1      -9.558   1.015 -24.440  1.00  0.00     0.223 C 
ATOM      5  C   UNL     1      -9.896   2.477 -24.130  1.00  0.00     0.097 C 
ATOM      6  C   UNL     1     -10.607   2.641 -22.787  1.00  0.00     0.168 C 
ENDROOT
BRANCH   2   7
ATOM      7  O   UNL     1     -10.779  -0.175 -22.015  1.00  0.00    -0.389 OA
ATOM      8  H   UNL     1     -11.238   0.002 -21.168  1.00  0.00     0.211 HD
ENDBRANCH   2   7
BRANCH   6   9
ATOM      9  O   UNL     1     -11.931   2.075 -22.890  1.00  0.00    -0.378 OA
ATOM     10  H   UNL     1     -12.458   2.677 -23.468  1.00  0.00     0.212 HD
ENDBRANCH   6   9
BRANCH   6  11
ATOM     11  C   UNL     1     -10.784   4.135 -22.480  1.00  0.00     0.335 C 
ATOM     12  O   UNL     1     -10.052   4.796 -21.759  1.00  0.00    -0.249 OA
BRANCH  11  13
ATOM     13  O   UNL     1     -11.864   4.651 -23.121  1.00  0.00    -0.479 OA
ATOM     14  H   UNL     1     -11.916   5.607 -22.870  1.00  0.00     0.296 HD
ENDBRANCH  11  13
ENDBRANCH   6  11
BRANCH   3  15
ATOM     15  O   UNL     1      -8.599  -1.034 -23.567  1.00  0.00    -0.452 OA
BRANCH  15  16
ATOM     16  C   UNL     1      -7.388  -1.557 -23.265  1.00  0.00     0.331 C 
ATOM     17  O   UNL     1      -7.157  -2.383 -22.400  1.00  0.00    -0.247 OA
BRANCH  16  18
ATOM     18  C   UNL     1      -6.394  -0.956 -24.174  1.00  0.00     0.094 C 
ATOM     19  C   UNL     1      -6.040  -1.601 -25.296  1.00  0.00     0.016 C 
BRANCH  19  20
ATOM     20  C   UNL     1      -5.064  -1.087 -26.268  1.00  0.00    -0.021 A 
ATOM     21  C   UNL     1      -4.733  -1.886 -27.374  1.00  0.00     0.058 A 
ATOM     22  C   UNL     1      -4.415   0.148 -26.096  1.00  0.00     0.012 A 
ATOM     23  C   UNL     1      -3.794  -1.434 -28.296  1.00  0.00     0.157 A 
ATOM     24  C   UNL     1      -3.472   0.594 -27.027  1.00  0.00     0.051 A 
ATOM     25  C   UNL     1      -3.171  -0.202 -28.121  1.00  0.00     0.157 A 
BRANCH  23  26
ATOM     26  O   UNL     1      -3.445  -2.170 -29.395  1.00  0.00    -0.504 OA
ATOM     27  H   UNL     1      -4.224  -2.677 -29.683  1.00  0.00     0.293 HD
ENDBRANCH  23  26
BRANCH  25  28
ATOM     28  O   UNL     1      -2.250   0.233 -29.029  1.00  0.00    -0.504 OA
ATOM     29  H   UNL     1      -2.379   1.201 -29.067  1.00  0.00     0.293 HD
ENDBRANCH  25  28
ENDBRANCH  19  20
ENDBRANCH  16  18
ENDBRANCH  15  16
ENDBRANCH   3  15
BRANCH   4  30
ATOM     30  O   UNL     1      -8.738   1.025 -25.632  1.00  0.00    -0.455 OA
BRANCH  30  31
ATOM     31  C   UNL     1      -9.064   0.142 -26.606  1.00  0.00     0.331 C 
ATOM     32  O   UNL     1      -9.988  -0.658 -26.579  1.00  0.00    -0.247 OA
BRANCH  31  33
ATOM     33  C   UNL     1      -8.148   0.236 -27.761  1.00  0.00     0.094 C 
ATOM     34  C   UNL     1      -7.379   1.302 -28.035  1.00  0.00     0.016 C 
BRANCH  34  35
ATOM     35  C   UNL     1      -6.462   1.359 -29.183  1.00  0.00    -0.021 A 
ATOM     36  C   UNL     1      -5.733   2.537 -29.407  1.00  0.00     0.058 A 
ATOM     37  C   UNL     1      -6.338   0.289 -30.086  1.00  0.00     0.012 A 
ATOM     38  C   UNL     1      -4.877   2.618 -30.502  1.00  0.00     0.157 A 
ATOM     39  C   UNL     1      -5.478   0.381 -31.184  1.00  0.00     0.051 A 
ATOM     40  C   UNL     1      -4.752   1.544 -31.380  1.00  0.00     0.157 A 
BRANCH  38  41
ATOM     41  O   UNL     1      -4.135   3.737 -30.759  1.00  0.00    -0.504 OA
ATOM     42  H   UNL     1      -3.976   3.786 -31.718  1.00  0.00     0.293 HD
ENDBRANCH  38  41
BRANCH  40  43
ATOM     43  O   UNL     1      -3.913   1.633 -32.451  1.00  0.00    -0.504 OA
ATOM     44  H   UNL     1      -3.091   1.191 -32.158  1.00  0.00     0.293 HD
ENDBRANCH  40  43
ENDBRANCH  34  35
ENDBRANCH  31  33
ENDBRANCH  30  31
ENDBRANCH   4  30
TORSDOF 16
ENDMDL
