MODEL 1
REMARK VINA RESULT:      -8.1      0.000      0.000
REMARK SMILES O=C(/C=C/c1ccc(O)c(O)c1)O[C@H](Cc1ccc(O)c(O)c1)C(=O)O
REMARK SMILES IDX 13 1 14 2 15 3 16 4 17 5 18 6 19 7 23 8 21 9 20 10 22 12
REMARK SMILES IDX 24 14 25 15 26 16 2 18 1 19 3 20 4 21 5 22 12 23 6 24 10 25
REMARK SMILES IDX 7 26 8 27 11 28 9 30
REMARK H PARENT 20 11 22 13 26 17 11 29 9 31
ROOT
ATOM      1  O   UNL     1      -8.336  -0.117 -32.213  1.00  0.00    -0.447 OA
ENDROOT
BRANCH   1   2
ATOM      2  C   UNL     1      -9.459   0.527 -31.587  1.00  0.00     0.290 C 
BRANCH   2   3
ATOM      3  C   UNL     1      -9.885  -0.319 -30.375  1.00  0.00     0.093 C 
BRANCH   3   4
ATOM      4  C   UNL     1      -8.708  -0.865 -29.593  1.00  0.00    -0.040 A 
ATOM      5  C   UNL     1      -8.273  -2.186 -29.796  1.00  0.00     0.008 A 
ATOM      6  C   UNL     1      -7.180  -2.698 -29.090  1.00  0.00     0.050 A 
ATOM      7  C   UNL     1      -6.519  -1.884 -28.180  1.00  0.00     0.157 A 
ATOM      8  C   UNL     1      -8.038  -0.063 -28.657  1.00  0.00     0.054 A 
ATOM      9  C   UNL     1      -6.948  -0.577 -27.969  1.00  0.00     0.157 A 
BRANCH   7  10
ATOM     10  O   UNL     1      -5.439  -2.323 -27.465  1.00  0.00    -0.504 OA
ATOM     11  H   UNL     1      -4.921  -2.918 -28.035  1.00  0.00     0.293 HD
ENDBRANCH   7  10
BRANCH   9  12
ATOM     12  O   UNL     1      -6.291   0.219 -27.074  1.00  0.00    -0.504 OA
ATOM     13  H   UNL     1      -6.434  -0.214 -26.210  1.00  0.00     0.293 HD
ENDBRANCH   9  12
ENDBRANCH   3   4
ENDBRANCH   2   3
BRANCH   2  14
ATOM     14  C   UNL     1     -10.644   0.677 -32.552  1.00  0.00     0.345 C 
ATOM     15  O   UNL     1     -11.347  -0.247 -32.937  1.00  0.00    -0.248 OA
BRANCH  14  16
ATOM     16  O   UNL     1     -10.871   1.952 -32.952  1.00  0.00    -0.478 OA
ATOM     17  H   UNL     1     -11.141   2.037 -33.899  1.00  0.00     0.296 HD
ENDBRANCH  14  16
ENDBRANCH   2  14
ENDBRANCH   1   2
BRANCH   1  18
ATOM     18  C   UNL     1      -7.442   0.719 -32.785  1.00  0.00     0.331 C 
ATOM     19  O   UNL     1      -7.463   1.073 -33.954  1.00  0.00    -0.247 OA
BRANCH  18  20
ATOM     20  C   UNL     1      -6.419   1.078 -31.789  1.00  0.00     0.094 C 
ATOM     21  C   UNL     1      -5.501   0.173 -31.419  1.00  0.00     0.016 C 
BRANCH  21  22
ATOM     22  C   UNL     1      -4.462   0.441 -30.418  1.00  0.00    -0.021 A 
ATOM     23  C   UNL     1      -4.409   1.657 -29.717  1.00  0.00     0.058 A 
ATOM     24  C   UNL     1      -3.539  -0.572 -30.109  1.00  0.00     0.012 A 
ATOM     25  C   UNL     1      -3.432   1.849 -28.746  1.00  0.00     0.157 A 
ATOM     26  C   UNL     1      -2.558  -0.368 -29.134  1.00  0.00     0.051 A 
ATOM     27  C   UNL     1      -2.514   0.842 -28.461  1.00  0.00     0.157 A 
BRANCH  25  28
ATOM     28  O   UNL     1      -3.339   3.012 -28.033  1.00  0.00    -0.504 OA
ATOM     29  H   UNL     1      -2.485   3.018 -27.566  1.00  0.00     0.293 HD
ENDBRANCH  25  28
BRANCH  27  30
ATOM     30  O   UNL     1      -1.561   1.038 -27.504  1.00  0.00    -0.504 OA
ATOM     31  H   UNL     1      -1.713   0.320 -26.857  1.00  0.00     0.293 HD
ENDBRANCH  27  30
ENDBRANCH  21  22
ENDBRANCH  18  20
ENDBRANCH   1  18
TORSDOF 12
ENDMDL
MODEL 2
REMARK VINA RESULT:      -8.0      2.968      7.033
REMARK SMILES O=C(/C=C/c1ccc(O)c(O)c1)O[C@H](Cc1ccc(O)c(O)c1)C(=O)O
REMARK SMILES IDX 13 1 14 2 15 3 16 4 17 5 18 6 19 7 23 8 21 9 20 10 22 12
REMARK SMILES IDX 24 14 25 15 26 16 2 18 1 19 3 20 4 21 5 22 12 23 6 24 10 25
REMARK SMILES IDX 7 26 8 27 11 28 9 30
REMARK H PARENT 20 11 22 13 26 17 11 29 9 31
ROOT
ATOM      1  O   UNL     1      -5.950  -0.745 -30.896  1.00  0.00    -0.447 OA
ENDROOT
BRANCH   1   2
ATOM      2  C   UNL     1      -5.287   0.528 -30.802  1.00  0.00     0.290 C 
BRANCH   2   3
ATOM      3  C   UNL     1      -6.345   1.634 -30.952  1.00  0.00     0.093 C 
BRANCH   3   4
ATOM      4  C   UNL     1      -7.585   1.169 -31.687  1.00  0.00    -0.040 A 
ATOM      5  C   UNL     1      -7.561   1.000 -33.082  1.00  0.00     0.008 A 
ATOM      6  C   UNL     1      -8.695   0.558 -33.771  1.00  0.00     0.050 A 
ATOM      7  C   UNL     1      -9.856   0.283 -33.061  1.00  0.00     0.157 A 
ATOM      8  C   UNL     1      -8.773   0.902 -30.989  1.00  0.00     0.054 A 
ATOM      9  C   UNL     1      -9.890   0.455 -31.680  1.00  0.00     0.157 A 
BRANCH   7  10
ATOM     10  O   UNL     1     -10.995  -0.159 -33.675  1.00  0.00    -0.504 OA
ATOM     11  H   UNL     1     -11.284  -0.972 -33.225  1.00  0.00     0.293 HD
ENDBRANCH   7  10
BRANCH   9  12
ATOM     12  O   UNL     1     -11.033   0.180 -30.987  1.00  0.00    -0.504 OA
ATOM     13  H   UNL     1     -10.981   0.748 -30.192  1.00  0.00     0.293 HD
ENDBRANCH   9  12
ENDBRANCH   3   4
ENDBRANCH   2   3
BRANCH   2  14
ATOM     14  C   UNL     1      -4.210   0.694 -31.884  1.00  0.00     0.345 C 
ATOM     15  O   UNL     1      -4.158   1.627 -32.673  1.00  0.00    -0.248 OA
BRANCH  14  16
ATOM     16  O   UNL     1      -3.284  -0.295 -31.896  1.00  0.00    -0.478 OA
ATOM     17  H   UNL     1      -2.969  -0.544 -32.799  1.00  0.00     0.296 HD
ENDBRANCH  14  16
ENDBRANCH   2  14
ENDBRANCH   1   2
BRANCH   1  18
ATOM     18  C   UNL     1      -5.626  -1.633 -29.930  1.00  0.00     0.331 C 
ATOM     19  O   UNL     1      -4.486  -1.933 -29.609  1.00  0.00    -0.247 OA
BRANCH  18  20
ATOM     20  C   UNL     1      -6.863  -2.211 -29.379  1.00  0.00     0.094 C 
ATOM     21  C   UNL     1      -7.388  -3.314 -29.933  1.00  0.00     0.016 C 
BRANCH  21  22
ATOM     22  C   UNL     1      -8.628  -3.942 -29.461  1.00  0.00    -0.021 A 
ATOM     23  C   UNL     1      -9.423  -4.732 -30.308  1.00  0.00     0.058 A 
ATOM     24  C   UNL     1      -8.990  -3.800 -28.111  1.00  0.00     0.012 A 
ATOM     25  C   UNL     1     -10.566  -5.343 -29.803  1.00  0.00     0.157 A 
ATOM     26  C   UNL     1     -10.143  -4.413 -27.615  1.00  0.00     0.051 A 
ATOM     27  C   UNL     1     -10.922  -5.180 -28.468  1.00  0.00     0.157 A 
BRANCH  25  28
ATOM     28  O   UNL     1     -11.373  -6.124 -30.583  1.00  0.00    -0.504 OA
ATOM     29  H   UNL     1     -11.647  -6.898 -30.062  1.00  0.00     0.293 HD
ENDBRANCH  25  28
BRANCH  27  30
ATOM     30  O   UNL     1     -12.044  -5.785 -27.981  1.00  0.00    -0.504 OA
ATOM     31  H   UNL     1     -12.712  -5.071 -27.945  1.00  0.00     0.293 HD
ENDBRANCH  27  30
ENDBRANCH  21  22
ENDBRANCH  18  20
ENDBRANCH   1  18
TORSDOF 12
ENDMDL
MODEL 3
REMARK VINA RESULT:      -7.8      2.245      6.039
REMARK SMILES O=C(/C=C/c1ccc(O)c(O)c1)O[C@H](Cc1ccc(O)c(O)c1)C(=O)O
REMARK SMILES IDX 13 1 14 2 15 3 16 4 17 5 18 6 19 7 23 8 21 9 20 10 22 12
REMARK SMILES IDX 24 14 25 15 26 16 2 18 1 19 3 20 4 21 5 22 12 23 6 24 10 25
REMARK SMILES IDX 7 26 8 27 11 28 9 30
REMARK H PARENT 20 11 22 13 26 17 11 29 9 31
ROOT
ATOM      1  O   UNL     1      -4.073   2.174 -30.118  1.00  0.00    -0.447 OA
ENDROOT
BRANCH   1   2
ATOM      2  C   UNL     1      -4.034   0.738 -30.061  1.00  0.00     0.290 C 
BRANCH   2   3
ATOM      3  C   UNL     1      -3.126   0.328 -28.888  1.00  0.00     0.093 C 
BRANCH   3   4
ATOM      4  C   UNL     1      -3.891  -0.294 -27.739  1.00  0.00    -0.040 A 
ATOM      5  C   UNL     1      -4.481  -1.562 -27.884  1.00  0.00     0.008 A 
ATOM      6  C   UNL     1      -5.180  -2.153 -26.826  1.00  0.00     0.050 A 
ATOM      7  C   UNL     1      -5.285  -1.474 -25.620  1.00  0.00     0.157 A 
ATOM      8  C   UNL     1      -4.023   0.383 -26.517  1.00  0.00     0.054 A 
ATOM      9  C   UNL     1      -4.709  -0.216 -25.471  1.00  0.00     0.157 A 
BRANCH   7  10
ATOM     10  O   UNL     1      -5.947  -2.002 -24.546  1.00  0.00    -0.504 OA
ATOM     11  H   UNL     1      -6.852  -1.644 -24.543  1.00  0.00     0.293 HD
ENDBRANCH   7  10
BRANCH   9  12
ATOM     12  O   UNL     1      -4.814   0.445 -24.281  1.00  0.00    -0.504 OA
ATOM     13  H   UNL     1      -5.063   1.358 -24.528  1.00  0.00     0.293 HD
ENDBRANCH   9  12
ENDBRANCH   3   4
ENDBRANCH   2   3
BRANCH   2  14
ATOM     14  C   UNL     1      -3.499   0.127 -31.364  1.00  0.00     0.345 C 
ATOM     15  O   UNL     1      -3.200  -1.050 -31.508  1.00  0.00    -0.248 OA
BRANCH  14  16
ATOM     16  O   UNL     1      -3.388   1.014 -32.383  1.00  0.00    -0.478 OA
ATOM     17  H   UNL     1      -2.878   0.676 -33.159  1.00  0.00     0.296 HD
ENDBRANCH  14  16
ENDBRANCH   2  14
ENDBRANCH   1   2
BRANCH   1  18
ATOM     18  C   UNL     1      -5.123   2.744 -29.485  1.00  0.00     0.331 C 
ATOM     19  O   UNL     1      -5.036   3.613 -28.631  1.00  0.00    -0.247 OA
BRANCH  18  20
ATOM     20  C   UNL     1      -6.365   2.106 -29.950  1.00  0.00     0.094 C 
ATOM     21  C   UNL     1      -6.622   2.025 -31.264  1.00  0.00     0.016 C 
BRANCH  21  22
ATOM     22  C   UNL     1      -7.845   1.425 -31.811  1.00  0.00    -0.021 A 
ATOM     23  C   UNL     1      -8.921   1.061 -30.984  1.00  0.00     0.058 A 
ATOM     24  C   UNL     1      -7.965   1.275 -33.202  1.00  0.00     0.012 A 
ATOM     25  C   UNL     1     -10.077   0.537 -31.552  1.00  0.00     0.157 A 
ATOM     26  C   UNL     1      -9.129   0.743 -33.763  1.00  0.00     0.051 A 
ATOM     27  C   UNL     1     -10.175   0.377 -32.932  1.00  0.00     0.157 A 
BRANCH  25  28
ATOM     28  O   UNL     1     -11.154   0.169 -30.794  1.00  0.00    -0.504 OA
ATOM     29  H   UNL     1     -11.566   0.973 -30.435  1.00  0.00     0.293 HD
ENDBRANCH  25  28
BRANCH  27  30
ATOM     30  O   UNL     1     -11.315  -0.134 -33.481  1.00  0.00    -0.504 OA
ATOM     31  H   UNL     1     -12.009   0.518 -33.258  1.00  0.00     0.293 HD
ENDBRANCH  27  30
ENDBRANCH  21  22
ENDBRANCH  18  20
ENDBRANCH   1  18
TORSDOF 12
ENDMDL
MODEL 4
REMARK VINA RESULT:      -7.7      2.135      2.813
REMARK SMILES O=C(/C=C/c1ccc(O)c(O)c1)O[C@H](Cc1ccc(O)c(O)c1)C(=O)O
REMARK SMILES IDX 13 1 14 2 15 3 16 4 17 5 18 6 19 7 23 8 21 9 20 10 22 12
REMARK SMILES IDX 24 14 25 15 26 16 2 18 1 19 3 20 4 21 5 22 12 23 6 24 10 25
REMARK SMILES IDX 7 26 8 27 11 28 9 30
REMARK H PARENT 20 11 22 13 26 17 11 29 9 31
ROOT
ATOM      1  O   UNL     1      -8.238   0.209 -33.253  1.00  0.00    -0.447 OA
ENDROOT
BRANCH   1   2
ATOM      2  C   UNL     1      -9.283  -0.015 -32.291  1.00  0.00     0.290 C 
BRANCH   2   3
ATOM      3  C   UNL     1      -9.343  -1.521 -31.986  1.00  0.00     0.093 C 
BRANCH   3   4
ATOM      4  C   UNL     1      -9.304  -1.826 -30.504  1.00  0.00    -0.040 A 
ATOM      5  C   UNL     1      -9.706  -0.856 -29.570  1.00  0.00     0.008 A 
ATOM      6  C   UNL     1      -9.687  -1.128 -28.198  1.00  0.00     0.050 A 
ATOM      7  C   UNL     1      -9.266  -2.377 -27.761  1.00  0.00     0.157 A 
ATOM      8  C   UNL     1      -8.865  -3.076 -30.041  1.00  0.00     0.054 A 
ATOM      9  C   UNL     1      -8.860  -3.341 -28.679  1.00  0.00     0.157 A 
BRANCH   7  10
ATOM     10  O   UNL     1      -9.232  -2.708 -26.434  1.00  0.00    -0.504 OA
ATOM     11  H   UNL     1      -9.197  -3.678 -26.366  1.00  0.00     0.293 HD
ENDBRANCH   7  10
BRANCH   9  12
ATOM     12  O   UNL     1      -8.449  -4.568 -28.243  1.00  0.00    -0.504 OA
ATOM     13  H   UNL     1      -8.964  -5.203 -28.779  1.00  0.00     0.293 HD
ENDBRANCH   9  12
ENDBRANCH   3   4
ENDBRANCH   2   3
BRANCH   2  14
ATOM     14  C   UNL     1     -10.648   0.461 -32.808  1.00  0.00     0.345 C 
ATOM     15  O   UNL     1     -11.583  -0.278 -33.081  1.00  0.00    -0.248 OA
BRANCH  14  16
ATOM     16  O   UNL     1     -10.751   1.806 -32.935  1.00  0.00    -0.478 OA
ATOM     17  H   UNL     1     -10.268   2.317 -32.240  1.00  0.00     0.296 HD
ENDBRANCH  14  16
ENDBRANCH   2  14
ENDBRANCH   1   2
BRANCH   1  18
ATOM     18  C   UNL     1      -7.172   0.901 -32.791  1.00  0.00     0.331 C 
ATOM     19  O   UNL     1      -6.432   1.586 -33.480  1.00  0.00    -0.247 OA
BRANCH  18  20
ATOM     20  C   UNL     1      -7.023   0.642 -31.350  1.00  0.00     0.094 C 
ATOM     21  C   UNL     1      -6.124  -0.256 -30.922  1.00  0.00     0.016 C 
BRANCH  21  22
ATOM     22  C   UNL     1      -5.928  -0.590 -29.506  1.00  0.00    -0.021 A 
ATOM     23  C   UNL     1      -6.242   0.321 -28.484  1.00  0.00     0.058 A 
ATOM     24  C   UNL     1      -5.477  -1.876 -29.167  1.00  0.00     0.012 A 
ATOM     25  C   UNL     1      -6.080  -0.056 -27.155  1.00  0.00     0.157 A 
ATOM     26  C   UNL     1      -5.313  -2.244 -27.829  1.00  0.00     0.051 A 
ATOM     27  C   UNL     1      -5.616  -1.328 -26.834  1.00  0.00     0.157 A 
BRANCH  25  28
ATOM     28  O   UNL     1      -6.373   0.791 -26.122  1.00  0.00    -0.504 OA
ATOM     29  H   UNL     1      -7.195   1.264 -26.337  1.00  0.00     0.293 HD
ENDBRANCH  25  28
BRANCH  27  30
ATOM     30  O   UNL     1      -5.464  -1.690 -25.527  1.00  0.00    -0.504 OA
ATOM     31  H   UNL     1      -6.363  -1.947 -25.238  1.00  0.00     0.293 HD
ENDBRANCH  27  30
ENDBRANCH  21  22
ENDBRANCH  18  20
ENDBRANCH   1  18
TORSDOF 12
ENDMDL
MODEL 5
REMARK VINA RESULT:      -7.7      2.383      6.421
REMARK SMILES O=C(/C=C/c1ccc(O)c(O)c1)O[C@H](Cc1ccc(O)c(O)c1)C(=O)O
REMARK SMILES IDX 13 1 14 2 15 3 16 4 17 5 18 6 19 7 23 8 21 9 20 10 22 12
REMARK SMILES IDX 24 14 25 15 26 16 2 18 1 19 3 20 4 21 5 22 12 23 6 24 10 25
REMARK SMILES IDX 7 26 8 27 11 28 9 30
REMARK H PARENT 20 11 22 13 26 17 11 29 9 31
ROOT
ATOM      1  O   UNL     1      -4.819  -0.290 -31.148  1.00  0.00    -0.447 OA
ENDROOT
BRANCH   1   2
ATOM      2  C   UNL     1      -5.671   0.847 -30.922  1.00  0.00     0.290 C 
BRANCH   2   3
ATOM      3  C   UNL     1      -6.309   1.244 -32.264  1.00  0.00     0.093 C 
BRANCH   3   4
ATOM      4  C   UNL     1      -7.739   0.765 -32.403  1.00  0.00    -0.040 A 
ATOM      5  C   UNL     1      -8.055  -0.589 -32.200  1.00  0.00     0.008 A 
ATOM      6  C   UNL     1      -9.374  -1.043 -32.313  1.00  0.00     0.050 A 
ATOM      7  C   UNL     1     -10.377  -0.137 -32.627  1.00  0.00     0.157 A 
ATOM      8  C   UNL     1      -8.765   1.662 -32.736  1.00  0.00     0.054 A 
ATOM      9  C   UNL     1     -10.071   1.205 -32.836  1.00  0.00     0.157 A 
BRANCH   7  10
ATOM     10  O   UNL     1     -11.686  -0.516 -32.743  1.00  0.00    -0.504 OA
ATOM     11  H   UNL     1     -12.238   0.283 -32.686  1.00  0.00     0.293 HD
ENDBRANCH   7  10
BRANCH   9  12
ATOM     12  O   UNL     1     -11.063   2.091 -33.142  1.00  0.00    -0.504 OA
ATOM     13  H   UNL     1     -10.753   2.536 -33.956  1.00  0.00     0.293 HD
ENDBRANCH   9  12
ENDBRANCH   3   4
ENDBRANCH   2   3
BRANCH   2  14
ATOM     14  C   UNL     1      -4.893   2.040 -30.347  1.00  0.00     0.345 C 
ATOM     15  O   UNL     1      -4.854   2.337 -29.161  1.00  0.00    -0.248 OA
BRANCH  14  16
ATOM     16  O   UNL     1      -4.222   2.760 -31.278  1.00  0.00    -0.478 OA
ATOM     17  H   UNL     1      -4.663   2.788 -32.163  1.00  0.00     0.296 HD
ENDBRANCH  14  16
ENDBRANCH   2  14
ENDBRANCH   1   2
BRANCH   1  18
ATOM     18  C   UNL     1      -4.533  -1.020 -30.047  1.00  0.00     0.331 C 
ATOM     19  O   UNL     1      -3.409  -1.222 -29.614  1.00  0.00    -0.247 OA
BRANCH  18  20
ATOM     20  C   UNL     1      -5.785  -1.570 -29.501  1.00  0.00     0.094 C 
ATOM     21  C   UNL     1      -6.309  -2.687 -30.028  1.00  0.00     0.016 C 
BRANCH  21  22
ATOM     22  C   UNL     1      -7.562  -3.289 -29.560  1.00  0.00    -0.021 A 
ATOM     23  C   UNL     1      -8.094  -2.992 -28.294  1.00  0.00     0.058 A 
ATOM     24  C   UNL     1      -8.278  -4.130 -30.427  1.00  0.00     0.012 A 
ATOM     25  C   UNL     1      -9.309  -3.553 -27.910  1.00  0.00     0.157 A 
ATOM     26  C   UNL     1      -9.495  -4.692 -30.031  1.00  0.00     0.051 A 
ATOM     27  C   UNL     1      -9.999  -4.399 -28.774  1.00  0.00     0.157 A 
BRANCH  25  28
ATOM     28  O   UNL     1      -9.872  -3.296 -26.691  1.00  0.00    -0.504 OA
ATOM     29  H   UNL     1     -10.794  -3.021 -26.831  1.00  0.00     0.293 HD
ENDBRANCH  25  28
BRANCH  27  30
ATOM     30  O   UNL     1     -11.191  -4.941 -28.391  1.00  0.00    -0.504 OA
ATOM     31  H   UNL     1     -11.182  -5.844 -28.769  1.00  0.00     0.293 HD
ENDBRANCH  27  30
ENDBRANCH  21  22
ENDBRANCH  18  20
ENDBRANCH   1  18
TORSDOF 12
ENDMDL
MODEL 6
REMARK VINA RESULT:      -7.6      1.943      3.581
REMARK SMILES O=C(/C=C/c1ccc(O)c(O)c1)O[C@H](Cc1ccc(O)c(O)c1)C(=O)O
REMARK SMILES IDX 13 1 14 2 15 3 16 4 17 5 18 6 19 7 23 8 21 9 20 10 22 12
REMARK SMILES IDX 24 14 25 15 26 16 2 18 1 19 3 20 4 21 5 22 12 23 6 24 10 25
REMARK SMILES IDX 7 26 8 27 11 28 9 30
REMARK H PARENT 20 11 22 13 26 17 11 29 9 31
ROOT
ATOM      1  O   UNL     1      -9.033  -1.400 -30.740  1.00  0.00    -0.447 OA
ENDROOT
BRANCH   1   2
ATOM      2  C   UNL     1      -8.720  -0.339 -31.660  1.00  0.00     0.290 C 
BRANCH   2   3
ATOM      3  C   UNL     1      -8.791   0.995 -30.897  1.00  0.00     0.093 C 
BRANCH   3   4
ATOM      4  C   UNL     1      -7.429   1.612 -30.659  1.00  0.00    -0.040 A 
ATOM      5  C   UNL     1      -7.170   2.325 -29.475  1.00  0.00     0.008 A 
ATOM      6  C   UNL     1      -5.912   2.889 -29.237  1.00  0.00     0.050 A 
ATOM      7  C   UNL     1      -4.911   2.736 -30.186  1.00  0.00     0.157 A 
ATOM      8  C   UNL     1      -6.408   1.484 -31.613  1.00  0.00     0.054 A 
ATOM      9  C   UNL     1      -5.161   2.038 -31.364  1.00  0.00     0.157 A 
BRANCH   7  10
ATOM     10  O   UNL     1      -3.659   3.256 -30.008  1.00  0.00    -0.504 OA
ATOM     11  H   UNL     1      -3.100   2.957 -30.747  1.00  0.00     0.293 HD
ENDBRANCH   7  10
BRANCH   9  12
ATOM     12  O   UNL     1      -4.171   1.889 -32.291  1.00  0.00    -0.504 OA
ATOM     13  H   UNL     1      -4.380   1.046 -32.740  1.00  0.00     0.293 HD
ENDBRANCH   9  12
ENDBRANCH   3   4
ENDBRANCH   2   3
BRANCH   2  14
ATOM     14  C   UNL     1      -9.693  -0.305 -32.847  1.00  0.00     0.345 C 
ATOM     15  O   UNL     1      -9.432  -0.714 -33.970  1.00  0.00    -0.248 OA
BRANCH  14  16
ATOM     16  O   UNL     1     -10.907   0.219 -32.551  1.00  0.00    -0.478 OA
ATOM     17  H   UNL     1     -10.905   0.829 -31.773  1.00  0.00     0.296 HD
ENDBRANCH  14  16
ENDBRANCH   2  14
ENDBRANCH   1   2
BRANCH   1  18
ATOM     18  C   UNL     1      -8.065  -2.331 -30.589  1.00  0.00     0.331 C 
ATOM     19  O   UNL     1      -8.246  -3.538 -30.610  1.00  0.00    -0.247 OA
BRANCH  18  20
ATOM     20  C   UNL     1      -6.784  -1.650 -30.337  1.00  0.00     0.094 C 
ATOM     21  C   UNL     1      -6.247  -1.671 -29.109  1.00  0.00     0.016 C 
BRANCH  21  22
ATOM     22  C   UNL     1      -4.986  -1.000 -28.768  1.00  0.00    -0.021 A 
ATOM     23  C   UNL     1      -3.982  -0.786 -29.727  1.00  0.00     0.058 A 
ATOM     24  C   UNL     1      -4.811  -0.504 -27.466  1.00  0.00     0.012 A 
ATOM     25  C   UNL     1      -2.823  -0.107 -29.368  1.00  0.00     0.157 A 
ATOM     26  C   UNL     1      -3.641   0.174 -27.114  1.00  0.00     0.051 A 
ATOM     27  C   UNL     1      -2.656   0.365 -28.069  1.00  0.00     0.157 A 
BRANCH  25  28
ATOM     28  O   UNL     1      -1.817   0.131 -30.263  1.00  0.00    -0.504 OA
ATOM     29  H   UNL     1      -1.199  -0.620 -30.235  1.00  0.00     0.293 HD
ENDBRANCH  25  28
BRANCH  27  30
ATOM     30  O   UNL     1      -1.517   1.034 -27.727  1.00  0.00    -0.504 OA
ATOM     31  H   UNL     1      -1.731   1.977 -27.879  1.00  0.00     0.293 HD
ENDBRANCH  27  30
ENDBRANCH  21  22
ENDBRANCH  18  20
ENDBRANCH   1  18
TORSDOF 12
ENDMDL
MODEL 7
REMARK VINA RESULT:      -7.5      2.108      6.879
REMARK SMILES O=C(/C=C/c1ccc(O)c(O)c1)O[C@H](Cc1ccc(O)c(O)c1)C(=O)O
REMARK SMILES IDX 13 1 14 2 15 3 16 4 17 5 18 6 19 7 23 8 21 9 20 10 22 12
REMARK SMILES IDX 24 14 25 15 26 16 2 18 1 19 3 20 4 21 5 22 12 23 6 24 10 25
REMARK SMILES IDX 7 26 8 27 11 28 9 30
REMARK H PARENT 20 11 22 13 26 17 11 29 9 31
ROOT
ATOM      1  O   UNL     1      -6.979  -1.837 -27.125  1.00  0.00    -0.447 OA
ENDROOT
BRANCH   1   2
ATOM      2  C   UNL     1      -6.011  -0.846 -26.739  1.00  0.00     0.290 C 
BRANCH   2   3
ATOM      3  C   UNL     1      -4.669  -1.202 -27.401  1.00  0.00     0.093 C 
BRANCH   3   4
ATOM      4  C   UNL     1      -4.457  -0.497 -28.724  1.00  0.00    -0.040 A 
ATOM      5  C   UNL     1      -4.966   0.798 -28.927  1.00  0.00     0.008 A 
ATOM      6  C   UNL     1      -4.767   1.465 -30.140  1.00  0.00     0.050 A 
ATOM      7  C   UNL     1      -4.055   0.835 -31.151  1.00  0.00     0.157 A 
ATOM      8  C   UNL     1      -3.755  -1.123 -29.765  1.00  0.00     0.054 A 
ATOM      9  C   UNL     1      -3.554  -0.450 -30.960  1.00  0.00     0.157 A 
BRANCH   7  10
ATOM     10  O   UNL     1      -3.819   1.437 -32.356  1.00  0.00    -0.504 OA
ATOM     11  H   UNL     1      -2.901   1.246 -32.615  1.00  0.00     0.293 HD
ENDBRANCH   7  10
BRANCH   9  12
ATOM     12  O   UNL     1      -2.852  -1.062 -31.958  1.00  0.00    -0.504 OA
ATOM     13  H   UNL     1      -2.140  -1.547 -31.495  1.00  0.00     0.293 HD
ENDBRANCH   9  12
ENDBRANCH   3   4
ENDBRANCH   2   3
BRANCH   2  14
ATOM     14  C   UNL     1      -5.834  -0.782 -25.215  1.00  0.00     0.345 C 
ATOM     15  O   UNL     1      -5.910  -1.746 -24.466  1.00  0.00    -0.248 OA
BRANCH  14  16
ATOM     16  O   UNL     1      -5.567   0.460 -24.744  1.00  0.00    -0.478 OA
ATOM     17  H   UNL     1      -5.394   1.132 -25.448  1.00  0.00     0.296 HD
ENDBRANCH  14  16
ENDBRANCH   2  14
ENDBRANCH   1   2
BRANCH   1  18
ATOM     18  C   UNL     1      -8.266  -1.511 -26.871  1.00  0.00     0.331 C 
ATOM     19  O   UNL     1      -8.911  -1.907 -25.913  1.00  0.00    -0.247 OA
BRANCH  18  20
ATOM     20  C   UNL     1      -8.766  -0.657 -27.961  1.00  0.00     0.094 C 
ATOM     21  C   UNL     1      -8.535  -1.000 -29.237  1.00  0.00     0.016 C 
BRANCH  21  22
ATOM     22  C   UNL     1      -8.978  -0.196 -30.381  1.00  0.00    -0.021 A 
ATOM     23  C   UNL     1     -10.036  -0.610 -31.208  1.00  0.00     0.058 A 
ATOM     24  C   UNL     1      -8.371   1.049 -30.613  1.00  0.00     0.012 A 
ATOM     25  C   UNL     1     -10.450   0.208 -32.255  1.00  0.00     0.157 A 
ATOM     26  C   UNL     1      -8.791   1.861 -31.670  1.00  0.00     0.051 A 
ATOM     27  C   UNL     1      -9.827   1.431 -32.482  1.00  0.00     0.157 A 
BRANCH  25  28
ATOM     28  O   UNL     1     -11.476  -0.146 -33.087  1.00  0.00    -0.504 OA
ATOM     29  H   UNL     1     -12.230  -0.427 -32.541  1.00  0.00     0.293 HD
ENDBRANCH  25  28
BRANCH  27  30
ATOM     30  O   UNL     1     -10.243   2.228 -33.510  1.00  0.00    -0.504 OA
ATOM     31  H   UNL     1     -11.090   1.833 -33.799  1.00  0.00     0.293 HD
ENDBRANCH  27  30
ENDBRANCH  21  22
ENDBRANCH  18  20
ENDBRANCH   1  18
TORSDOF 12
ENDMDL
MODEL 8
REMARK VINA RESULT:      -7.5      1.743      3.151
REMARK SMILES O=C(/C=C/c1ccc(O)c(O)c1)O[C@H](Cc1ccc(O)c(O)c1)C(=O)O
REMARK SMILES IDX 13 1 14 2 15 3 16 4 17 5 18 6 19 7 23 8 21 9 20 10 22 12
REMARK SMILES IDX 24 14 25 15 26 16 2 18 1 19 3 20 4 21 5 22 12 23 6 24 10 25
REMARK SMILES IDX 7 26 8 27 11 28 9 30
REMARK H PARENT 20 11 22 13 26 17 11 29 9 31
ROOT
ATOM      1  O   UNL     1      -9.739  -0.737 -31.054  1.00  0.00    -0.447 OA
ENDROOT
BRANCH   1   2
ATOM      2  C   UNL     1      -9.376   0.349 -31.924  1.00  0.00     0.290 C 
BRANCH   2   3
ATOM      3  C   UNL     1      -9.189   1.611 -31.066  1.00  0.00     0.093 C 
BRANCH   3   4
ATOM      4  C   UNL     1      -7.733   1.942 -30.812  1.00  0.00    -0.040 A 
ATOM      5  C   UNL     1      -6.780   1.772 -31.830  1.00  0.00     0.008 A 
ATOM      6  C   UNL     1      -5.434   2.086 -31.613  1.00  0.00     0.050 A 
ATOM      7  C   UNL     1      -5.043   2.573 -30.374  1.00  0.00     0.157 A 
ATOM      8  C   UNL     1      -7.316   2.420 -29.561  1.00  0.00     0.054 A 
ATOM      9  C   UNL     1      -5.981   2.738 -29.358  1.00  0.00     0.157 A 
BRANCH   7  10
ATOM     10  O   UNL     1      -3.745   2.906 -30.101  1.00  0.00    -0.504 OA
ATOM     11  H   UNL     1      -3.177   2.171 -30.394  1.00  0.00     0.293 HD
ENDBRANCH   7  10
BRANCH   9  12
ATOM     12  O   UNL     1      -5.590   3.220 -28.142  1.00  0.00    -0.504 OA
ATOM     13  H   UNL     1      -4.917   3.898 -28.351  1.00  0.00     0.293 HD
ENDBRANCH   9  12
ENDBRANCH   3   4
ENDBRANCH   2   3
BRANCH   2  14
ATOM     14  C   UNL     1     -10.447   0.607 -32.994  1.00  0.00     0.345 C 
ATOM     15  O   UNL     1     -10.875  -0.239 -33.766  1.00  0.00    -0.248 OA
BRANCH  14  16
ATOM     16  O   UNL     1     -10.907   1.881 -33.016  1.00  0.00    -0.478 OA
ATOM     17  H   UNL     1     -11.865   1.962 -33.248  1.00  0.00     0.296 HD
ENDBRANCH  14  16
ENDBRANCH   2  14
ENDBRANCH   1   2
BRANCH   1  18
ATOM     18  C   UNL     1      -8.922  -1.813 -31.108  1.00  0.00     0.331 C 
ATOM     19  O   UNL     1      -9.290  -2.961 -31.303  1.00  0.00    -0.247 OA
BRANCH  18  20
ATOM     20  C   UNL     1      -7.542  -1.378 -30.837  1.00  0.00     0.094 C 
ATOM     21  C   UNL     1      -7.079  -1.374 -29.578  1.00  0.00     0.016 C 
BRANCH  21  22
ATOM     22  C   UNL     1      -5.726  -0.935 -29.218  1.00  0.00    -0.021 A 
ATOM     23  C   UNL     1      -5.441  -0.382 -27.958  1.00  0.00     0.058 A 
ATOM     24  C   UNL     1      -4.680  -1.136 -30.134  1.00  0.00     0.012 A 
ATOM     25  C   UNL     1      -4.134  -0.021 -27.646  1.00  0.00     0.157 A 
ATOM     26  C   UNL     1      -3.372  -0.766 -29.813  1.00  0.00     0.051 A 
ATOM     27  C   UNL     1      -3.111  -0.210 -28.571  1.00  0.00     0.157 A 
BRANCH  25  28
ATOM     28  O   UNL     1      -3.802   0.518 -26.435  1.00  0.00    -0.504 OA
ATOM     29  H   UNL     1      -3.377   1.380 -26.589  1.00  0.00     0.293 HD
ENDBRANCH  25  28
BRANCH  27  30
ATOM     30  O   UNL     1      -1.831   0.143 -28.254  1.00  0.00    -0.504 OA
ATOM     31  H   UNL     1      -1.919   0.685 -27.444  1.00  0.00     0.293 HD
ENDBRANCH  27  30
ENDBRANCH  21  22
ENDBRANCH  18  20
ENDBRANCH   1  18
TORSDOF 12
ENDMDL
MODEL 9
REMARK VINA RESULT:      -7.4      1.738      6.209
REMARK SMILES O=C(/C=C/c1ccc(O)c(O)c1)O[C@H](Cc1ccc(O)c(O)c1)C(=O)O
REMARK SMILES IDX 13 1 14 2 15 3 16 4 17 5 18 6 19 7 23 8 21 9 20 10 22 12
REMARK SMILES IDX 24 14 25 15 26 16 2 18 1 19 3 20 4 21 5 22 12 23 6 24 10 25
REMARK SMILES IDX 7 26 8 27 11 28 9 30
REMARK H PARENT 20 11 22 13 26 17 11 29 9 31
ROOT
ATOM      1  O   UNL     1      -4.302   1.618 -28.631  1.00  0.00    -0.447 OA
ENDROOT
BRANCH   1   2
ATOM      2  C   UNL     1      -3.660   0.385 -28.999  1.00  0.00     0.290 C 
BRANCH   2   3
ATOM      3  C   UNL     1      -4.160  -0.720 -28.052  1.00  0.00     0.093 C 
BRANCH   3   4
ATOM      4  C   UNL     1      -5.517  -1.264 -28.445  1.00  0.00    -0.040 A 
ATOM      5  C   UNL     1      -5.776  -1.628 -29.778  1.00  0.00     0.008 A 
ATOM      6  C   UNL     1      -7.021  -2.144 -30.153  1.00  0.00     0.050 A 
ATOM      7  C   UNL     1      -8.008  -2.299 -29.189  1.00  0.00     0.157 A 
ATOM      8  C   UNL     1      -6.534  -1.412 -27.489  1.00  0.00     0.054 A 
ATOM      9  C   UNL     1      -7.762  -1.935 -27.868  1.00  0.00     0.157 A 
BRANCH   7  10
ATOM     10  O   UNL     1      -9.242  -2.805 -29.489  1.00  0.00    -0.504 OA
ATOM     11  H   UNL     1      -9.388  -3.593 -28.937  1.00  0.00     0.293 HD
ENDBRANCH   7  10
BRANCH   9  12
ATOM     12  O   UNL     1      -8.736  -2.092 -26.924  1.00  0.00    -0.504 OA
ATOM     13  H   UNL     1      -9.517  -1.641 -27.301  1.00  0.00     0.293 HD
ENDBRANCH   9  12
ENDBRANCH   3   4
ENDBRANCH   2   3
BRANCH   2  14
ATOM     14  C   UNL     1      -2.130   0.487 -28.908  1.00  0.00     0.345 C 
ATOM     15  O   UNL     1      -1.362   0.221 -29.822  1.00  0.00    -0.248 OA
BRANCH  14  16
ATOM     16  O   UNL     1      -1.677   0.918 -27.706  1.00  0.00    -0.478 OA
ATOM     17  H   UNL     1      -1.050   0.295 -27.263  1.00  0.00     0.296 HD
ENDBRANCH  14  16
ENDBRANCH   2  14
ENDBRANCH   1   2
BRANCH   1  18
ATOM     18  C   UNL     1      -4.537   2.469 -29.654  1.00  0.00     0.331 C 
ATOM     19  O   UNL     1      -4.052   3.585 -29.761  1.00  0.00    -0.247 OA
BRANCH  18  20
ATOM     20  C   UNL     1      -5.509   1.854 -30.573  1.00  0.00     0.094 C 
ATOM     21  C   UNL     1      -6.821   2.074 -30.402  1.00  0.00     0.016 C 
BRANCH  21  22
ATOM     22  C   UNL     1      -7.856   1.482 -31.258  1.00  0.00    -0.021 A 
ATOM     23  C   UNL     1      -9.045   0.960 -30.723  1.00  0.00     0.058 A 
ATOM     24  C   UNL     1      -7.678   1.500 -32.651  1.00  0.00     0.012 A 
ATOM     25  C   UNL     1     -10.017   0.450 -31.578  1.00  0.00     0.157 A 
ATOM     26  C   UNL     1      -8.658   0.981 -33.501  1.00  0.00     0.051 A 
ATOM     27  C   UNL     1      -9.820   0.459 -32.956  1.00  0.00     0.157 A 
BRANCH  25  28
ATOM     28  O   UNL     1     -11.193  -0.067 -31.109  1.00  0.00    -0.504 OA
ATOM     29  H   UNL     1     -11.646  -0.513 -31.845  1.00  0.00     0.293 HD
ENDBRANCH  25  28
BRANCH  27  30
ATOM     30  O   UNL     1     -10.780  -0.041 -33.786  1.00  0.00    -0.504 OA
ATOM     31  H   UNL     1     -10.285  -0.577 -34.438  1.00  0.00     0.293 HD
ENDBRANCH  27  30
ENDBRANCH  21  22
ENDBRANCH  18  20
ENDBRANCH   1  18
TORSDOF 12
ENDMDL
MODEL 10
REMARK VINA RESULT:      -7.4      1.886      3.080
REMARK SMILES O=C(/C=C/c1ccc(O)c(O)c1)O[C@H](Cc1ccc(O)c(O)c1)C(=O)O
REMARK SMILES IDX 13 1 14 2 15 3 16 4 17 5 18 6 19 7 23 8 21 9 20 10 22 12
REMARK SMILES IDX 24 14 25 15 26 16 2 18 1 19 3 20 4 21 5 22 12 23 6 24 10 25
REMARK SMILES IDX 7 26 8 27 11 28 9 30
REMARK H PARENT 20 11 22 13 26 17 11 29 9 31
ROOT
ATOM      1  O   UNL     1      -9.665  -2.192 -30.871  1.00  0.00    -0.447 OA
ENDROOT
BRANCH   1   2
ATOM      2  C   UNL     1      -9.321  -0.891 -31.378  1.00  0.00     0.290 C 
BRANCH   2   3
ATOM      3  C   UNL     1      -9.604   0.145 -30.277  1.00  0.00     0.093 C 
BRANCH   3   4
ATOM      4  C   UNL     1      -8.344   0.775 -29.720  1.00  0.00    -0.040 A 
ATOM      5  C   UNL     1      -7.557   1.616 -30.525  1.00  0.00     0.008 A 
ATOM      6  C   UNL     1      -6.398   2.214 -30.020  1.00  0.00     0.050 A 
ATOM      7  C   UNL     1      -6.027   1.970 -28.705  1.00  0.00     0.157 A 
ATOM      8  C   UNL     1      -7.944   0.527 -28.399  1.00  0.00     0.054 A 
ATOM      9  C   UNL     1      -6.798   1.133 -27.903  1.00  0.00     0.157 A 
BRANCH   7  10
ATOM     10  O   UNL     1      -4.911   2.531 -28.150  1.00  0.00    -0.504 OA
ATOM     11  H   UNL     1      -4.964   2.419 -27.185  1.00  0.00     0.293 HD
ENDBRANCH   7  10
BRANCH   9  12
ATOM     12  O   UNL     1      -6.430   0.899 -26.609  1.00  0.00    -0.504 OA
ATOM     13  H   UNL     1      -5.467   0.734 -26.655  1.00  0.00     0.293 HD
ENDBRANCH   9  12
ENDBRANCH   3   4
ENDBRANCH   2   3
BRANCH   2  14
ATOM     14  C   UNL     1     -10.125  -0.536 -32.638  1.00  0.00     0.345 C 
ATOM     15  O   UNL     1     -11.307  -0.223 -32.641  1.00  0.00    -0.248 OA
BRANCH  14  16
ATOM     16  O   UNL     1      -9.404  -0.587 -33.784  1.00  0.00    -0.478 OA
ATOM     17  H   UNL     1      -9.870  -0.215 -34.572  1.00  0.00     0.296 HD
ENDBRANCH  14  16
ENDBRANCH   2  14
ENDBRANCH   1   2
BRANCH   1  18
ATOM     18  C   UNL     1      -8.634  -3.061 -30.779  1.00  0.00     0.331 C 
ATOM     19  O   UNL     1      -8.748  -4.274 -30.691  1.00  0.00    -0.247 OA
BRANCH  18  20
ATOM     20  C   UNL     1      -7.372  -2.304 -30.742  1.00  0.00     0.094 C 
ATOM     21  C   UNL     1      -6.526  -2.465 -29.714  1.00  0.00     0.016 C 
BRANCH  21  22
ATOM     22  C   UNL     1      -5.260  -1.733 -29.590  1.00  0.00    -0.021 A 
ATOM     23  C   UNL     1      -4.731  -0.988 -30.656  1.00  0.00     0.058 A 
ATOM     24  C   UNL     1      -4.598  -1.727 -28.351  1.00  0.00     0.012 A 
ATOM     25  C   UNL     1      -3.550  -0.274 -30.477  1.00  0.00     0.157 A 
ATOM     26  C   UNL     1      -3.409  -1.012 -28.182  1.00  0.00     0.051 A 
ATOM     27  C   UNL     1      -2.896  -0.291 -29.249  1.00  0.00     0.157 A 
BRANCH  25  28
ATOM     28  O   UNL     1      -2.994   0.469 -31.481  1.00  0.00    -0.504 OA
ATOM     29  H   UNL     1      -2.829   1.366 -31.143  1.00  0.00     0.293 HD
ENDBRANCH  25  28
BRANCH  27  30
ATOM     30  O   UNL     1      -1.739   0.414 -29.081  1.00  0.00    -0.504 OA
ATOM     31  H   UNL     1      -2.026   1.349 -29.046  1.00  0.00     0.293 HD
ENDBRANCH  27  30
ENDBRANCH  21  22
ENDBRANCH  18  20
ENDBRANCH   1  18
TORSDOF 12
ENDMDL
