MODEL 1
REMARK VINA RESULT:      -8.1      0.000      0.000
REMARK SMILES O=C(C=Cc1ccc(O)c(O)c1)O[C@@H](Cc1ccc(O)c(O)c1)C(=O)O
REMARK SMILES IDX 13 1 14 2 15 3 16 4 17 5 18 6 19 7 23 8 21 9 20 10 22 12
REMARK SMILES IDX 24 14 25 15 26 16 2 18 1 19 3 20 4 21 5 22 12 23 6 24 10 25
REMARK SMILES IDX 7 26 8 27 11 28 9 30
REMARK H PARENT 20 11 22 13 26 17 11 29 9 31
ROOT
ATOM      1  O   UNL     1      -9.077  -1.378 -32.398  1.00  0.00    -0.447 OA
ENDROOT
BRANCH   1   2
ATOM      2  C   UNL     1      -9.309   0.040 -32.242  1.00  0.00     0.290 C 
BRANCH   2   3
ATOM      3  C   UNL     1      -8.299   0.880 -33.039  1.00  0.00     0.093 C 
BRANCH   3   4
ATOM      4  C   UNL     1      -7.119   1.355 -32.217  1.00  0.00    -0.040 A 
ATOM      5  C   UNL     1      -7.319   2.171 -31.089  1.00  0.00     0.008 A 
ATOM      6  C   UNL     1      -6.233   2.643 -30.346  1.00  0.00     0.050 A 
ATOM      7  C   UNL     1      -4.945   2.299 -30.734  1.00  0.00     0.157 A 
ATOM      8  C   UNL     1      -5.811   1.012 -32.588  1.00  0.00     0.054 A 
ATOM      9  C   UNL     1      -4.740   1.491 -31.848  1.00  0.00     0.157 A 
BRANCH   7  10
ATOM     10  O   UNL     1      -3.843   2.734 -30.052  1.00  0.00    -0.504 OA
ATOM     11  H   UNL     1      -4.131   3.406 -29.411  1.00  0.00     0.293 HD
ENDBRANCH   7  10
BRANCH   9  12
ATOM     12  O   UNL     1      -3.471   1.162 -32.230  1.00  0.00    -0.504 OA
ATOM     13  H   UNL     1      -3.424   0.192 -32.109  1.00  0.00     0.293 HD
ENDBRANCH   9  12
ENDBRANCH   3   4
ENDBRANCH   2   3
BRANCH   2  14
ATOM     14  C   UNL     1     -10.734   0.359 -32.687  1.00  0.00     0.345 C 
ATOM     15  O   UNL     1     -11.609  -0.480 -32.849  1.00  0.00    -0.248 OA
BRANCH  14  16
ATOM     16  O   UNL     1     -10.955   1.683 -32.878  1.00  0.00    -0.478 OA
ATOM     17  H   UNL     1     -11.817   1.938 -32.484  1.00  0.00     0.296 HD
ENDBRANCH  14  16
ENDBRANCH   2  14
ENDBRANCH   1   2
BRANCH   1  18
ATOM     18  C   UNL     1      -9.026  -2.075 -31.235  1.00  0.00     0.331 C 
ATOM     19  O   UNL     1      -9.698  -3.049 -30.948  1.00  0.00    -0.247 OA
BRANCH  18  20
ATOM     20  C   UNL     1      -8.019  -1.440 -30.363  1.00  0.00     0.094 C 
ATOM     21  C   UNL     1      -6.750  -1.876 -30.389  1.00  0.00     0.016 C 
BRANCH  21  22
ATOM     22  C   UNL     1      -5.675  -1.305 -29.566  1.00  0.00    -0.021 A 
ATOM     23  C   UNL     1      -6.020  -0.458 -28.501  1.00  0.00     0.058 A 
ATOM     24  C   UNL     1      -4.317  -1.540 -29.845  1.00  0.00     0.012 A 
ATOM     25  C   UNL     1      -5.018   0.112 -27.722  1.00  0.00     0.157 A 
ATOM     26  C   UNL     1      -3.317  -0.963 -29.056  1.00  0.00     0.051 A 
ATOM     27  C   UNL     1      -3.679  -0.145 -27.998  1.00  0.00     0.157 A 
BRANCH  25  28
ATOM     28  O   UNL     1      -5.302   0.938 -26.669  1.00  0.00    -0.504 OA
ATOM     29  H   UNL     1      -5.773   1.718 -27.010  1.00  0.00     0.293 HD
ENDBRANCH  25  28
BRANCH  27  30
ATOM     30  O   UNL     1      -2.702   0.419 -27.228  1.00  0.00    -0.504 OA
ATOM     31  H   UNL     1      -1.872   0.017 -27.550  1.00  0.00     0.293 HD
ENDBRANCH  27  30
ENDBRANCH  21  22
ENDBRANCH  18  20
ENDBRANCH   1  18
TORSDOF 12
ENDMDL
MODEL 2
REMARK VINA RESULT:      -7.9      0.556      1.280
REMARK SMILES O=C(C=Cc1ccc(O)c(O)c1)O[C@@H](Cc1ccc(O)c(O)c1)C(=O)O
REMARK SMILES IDX 13 1 14 2 15 3 16 4 17 5 18 6 19 7 23 8 21 9 20 10 22 12
REMARK SMILES IDX 24 14 25 15 26 16 2 18 1 19 3 20 4 21 5 22 12 23 6 24 10 25
REMARK SMILES IDX 7 26 8 27 11 28 9 30
REMARK H PARENT 20 11 22 13 26 17 11 29 9 31
ROOT
ATOM      1  O   UNL     1      -9.065  -1.357 -32.399  1.00  0.00    -0.447 OA
ENDROOT
BRANCH   1   2
ATOM      2  C   UNL     1      -9.325   0.057 -32.245  1.00  0.00     0.290 C 
BRANCH   2   3
ATOM      3  C   UNL     1      -8.326   0.915 -33.036  1.00  0.00     0.093 C 
BRANCH   3   4
ATOM      4  C   UNL     1      -7.143   1.384 -32.214  1.00  0.00    -0.040 A 
ATOM      5  C   UNL     1      -7.340   2.160 -31.059  1.00  0.00     0.008 A 
ATOM      6  C   UNL     1      -6.252   2.627 -30.314  1.00  0.00     0.050 A 
ATOM      7  C   UNL     1      -4.964   2.317 -30.730  1.00  0.00     0.157 A 
ATOM      8  C   UNL     1      -5.835   1.074 -32.613  1.00  0.00     0.054 A 
ATOM      9  C   UNL     1      -4.761   1.547 -31.872  1.00  0.00     0.157 A 
BRANCH   7  10
ATOM     10  O   UNL     1      -3.860   2.748 -30.049  1.00  0.00    -0.504 OA
ATOM     11  H   UNL     1      -3.090   2.657 -30.636  1.00  0.00     0.293 HD
ENDBRANCH   7  10
BRANCH   9  12
ATOM     12  O   UNL     1      -3.492   1.252 -32.280  1.00  0.00    -0.504 OA
ATOM     13  H   UNL     1      -3.207   2.045 -32.778  1.00  0.00     0.293 HD
ENDBRANCH   9  12
ENDBRANCH   3   4
ENDBRANCH   2   3
BRANCH   2  14
ATOM     14  C   UNL     1     -10.753   0.347 -32.700  1.00  0.00     0.345 C 
ATOM     15  O   UNL     1     -11.611  -0.508 -32.866  1.00  0.00    -0.248 OA
BRANCH  14  16
ATOM     16  O   UNL     1     -10.997   1.667 -32.898  1.00  0.00    -0.478 OA
ATOM     17  H   UNL     1     -10.180   2.114 -33.208  1.00  0.00     0.296 HD
ENDBRANCH  14  16
ENDBRANCH   2  14
ENDBRANCH   1   2
BRANCH   1  18
ATOM     18  C   UNL     1      -9.110  -2.070 -31.245  1.00  0.00     0.331 C 
ATOM     19  O   UNL     1      -9.737  -3.097 -31.057  1.00  0.00    -0.247 OA
BRANCH  18  20
ATOM     20  C   UNL     1      -8.275  -1.378 -30.244  1.00  0.00     0.094 C 
ATOM     21  C   UNL     1      -6.955  -1.619 -30.201  1.00  0.00     0.016 C 
BRANCH  21  22
ATOM     22  C   UNL     1      -6.040  -0.976 -29.249  1.00  0.00    -0.021 A 
ATOM     23  C   UNL     1      -4.657  -1.091 -29.462  1.00  0.00     0.058 A 
ATOM     24  C   UNL     1      -6.505  -0.297 -28.109  1.00  0.00     0.012 A 
ATOM     25  C   UNL     1      -3.770  -0.509 -28.561  1.00  0.00     0.157 A 
ATOM     26  C   UNL     1      -5.606   0.285 -27.210  1.00  0.00     0.051 A 
ATOM     27  C   UNL     1      -4.246   0.176 -27.447  1.00  0.00     0.157 A 
BRANCH  25  28
ATOM     28  O   UNL     1      -2.415  -0.586 -28.727  1.00  0.00    -0.504 OA
ATOM     29  H   UNL     1      -2.202  -1.458 -29.103  1.00  0.00     0.293 HD
ENDBRANCH  25  28
BRANCH  27  30
ATOM     30  O   UNL     1      -3.368   0.744 -26.568  1.00  0.00    -0.504 OA
ATOM     31  H   UNL     1      -2.510   0.734 -27.037  1.00  0.00     0.293 HD
ENDBRANCH  27  30
ENDBRANCH  21  22
ENDBRANCH  18  20
ENDBRANCH   1  18
TORSDOF 12
ENDMDL
MODEL 3
REMARK VINA RESULT:      -7.8      1.976      4.412
REMARK SMILES O=C(C=Cc1ccc(O)c(O)c1)O[C@@H](Cc1ccc(O)c(O)c1)C(=O)O
REMARK SMILES IDX 13 1 14 2 15 3 16 4 17 5 18 6 19 7 23 8 21 9 20 10 22 12
REMARK SMILES IDX 24 14 25 15 26 16 2 18 1 19 3 20 4 21 5 22 12 23 6 24 10 25
REMARK SMILES IDX 7 26 8 27 11 28 9 30
REMARK H PARENT 20 11 22 13 26 17 11 29 9 31
ROOT
ATOM      1  O   UNL     1      -8.458   1.571 -32.236  1.00  0.00    -0.447 OA
ENDROOT
BRANCH   1   2
ATOM      2  C   UNL     1      -9.355   0.445 -32.104  1.00  0.00     0.290 C 
BRANCH   2   3
ATOM      3  C   UNL     1      -9.831   0.255 -30.655  1.00  0.00     0.093 C 
BRANCH   3   4
ATOM      4  C   UNL     1      -9.447  -1.082 -30.058  1.00  0.00    -0.040 A 
ATOM      5  C   UNL     1      -9.003  -2.131 -30.884  1.00  0.00     0.008 A 
ATOM      6  C   UNL     1      -8.680  -3.379 -30.344  1.00  0.00     0.050 A 
ATOM      7  C   UNL     1      -8.803  -3.579 -28.975  1.00  0.00     0.157 A 
ATOM      8  C   UNL     1      -9.556  -1.301 -28.678  1.00  0.00     0.054 A 
ATOM      9  C   UNL     1      -9.240  -2.545 -28.152  1.00  0.00     0.157 A 
BRANCH   7  10
ATOM     10  O   UNL     1      -8.509  -4.778 -28.389  1.00  0.00    -0.504 OA
ATOM     11  H   UNL     1      -8.564  -4.663 -27.425  1.00  0.00     0.293 HD
ENDBRANCH   7  10
BRANCH   9  12
ATOM     12  O   UNL     1      -9.367  -2.749 -26.808  1.00  0.00    -0.504 OA
ATOM     13  H   UNL     1      -8.941  -1.966 -26.402  1.00  0.00     0.293 HD
ENDBRANCH   9  12
ENDBRANCH   3   4
ENDBRANCH   2   3
BRANCH   2  14
ATOM     14  C   UNL     1     -10.547   0.653 -33.033  1.00  0.00     0.345 C 
ATOM     15  O   UNL     1     -11.063  -0.232 -33.702  1.00  0.00    -0.248 OA
BRANCH  14  16
ATOM     16  O   UNL     1     -11.004   1.930 -33.046  1.00  0.00    -0.478 OA
ATOM     17  H   UNL     1     -11.166   2.217 -33.970  1.00  0.00     0.296 HD
ENDBRANCH  14  16
ENDBRANCH   2  14
ENDBRANCH   1   2
BRANCH   1  18
ATOM     18  C   UNL     1      -7.317   1.309 -32.922  1.00  0.00     0.331 C 
ATOM     19  O   UNL     1      -7.241   0.959 -34.087  1.00  0.00    -0.247 OA
BRANCH  18  20
ATOM     20  C   UNL     1      -6.175   1.506 -32.009  1.00  0.00     0.094 C 
ATOM     21  C   UNL     1      -5.777   0.498 -31.217  1.00  0.00     0.016 C 
BRANCH  21  22
ATOM     22  C   UNL     1      -4.648   0.593 -30.282  1.00  0.00    -0.021 A 
ATOM     23  C   UNL     1      -4.478   1.780 -29.551  1.00  0.00     0.058 A 
ATOM     24  C   UNL     1      -3.710  -0.443 -30.137  1.00  0.00     0.012 A 
ATOM     25  C   UNL     1      -3.403   1.901 -28.675  1.00  0.00     0.157 A 
ATOM     26  C   UNL     1      -2.634  -0.312 -29.254  1.00  0.00     0.051 A 
ATOM     27  C   UNL     1      -2.493   0.859 -28.528  1.00  0.00     0.157 A 
BRANCH  25  28
ATOM     28  O   UNL     1      -3.198   3.033 -27.935  1.00  0.00    -0.504 OA
ATOM     29  H   UNL     1      -3.945   3.136 -27.320  1.00  0.00     0.293 HD
ENDBRANCH  25  28
BRANCH  27  30
ATOM     30  O   UNL     1      -1.441   0.987 -27.667  1.00  0.00    -0.504 OA
ATOM     31  H   UNL     1      -1.071   1.871 -27.861  1.00  0.00     0.293 HD
ENDBRANCH  27  30
ENDBRANCH  21  22
ENDBRANCH  18  20
ENDBRANCH   1  18
TORSDOF 12
ENDMDL
MODEL 4
REMARK VINA RESULT:      -7.7      1.775      6.787
REMARK SMILES O=C(C=Cc1ccc(O)c(O)c1)O[C@@H](Cc1ccc(O)c(O)c1)C(=O)O
REMARK SMILES IDX 13 1 14 2 15 3 16 4 17 5 18 6 19 7 23 8 21 9 20 10 22 12
REMARK SMILES IDX 24 14 25 15 26 16 2 18 1 19 3 20 4 21 5 22 12 23 6 24 10 25
REMARK SMILES IDX 7 26 8 27 11 28 9 30
REMARK H PARENT 20 11 22 13 26 17 11 29 9 31
ROOT
ATOM      1  O   UNL     1      -4.563   1.328 -29.547  1.00  0.00    -0.447 OA
ENDROOT
BRANCH   1   2
ATOM      2  C   UNL     1      -3.231   0.919 -29.934  1.00  0.00     0.290 C 
BRANCH   2   3
ATOM      3  C   UNL     1      -2.530   0.118 -28.826  1.00  0.00     0.093 C 
BRANCH   3   4
ATOM      4  C   UNL     1      -3.475  -0.422 -27.774  1.00  0.00    -0.040 A 
ATOM      5  C   UNL     1      -4.159  -1.633 -27.983  1.00  0.00     0.008 A 
ATOM      6  C   UNL     1      -5.060  -2.121 -27.032  1.00  0.00     0.050 A 
ATOM      7  C   UNL     1      -5.279  -1.393 -25.870  1.00  0.00     0.157 A 
ATOM      8  C   UNL     1      -3.704   0.294 -26.590  1.00  0.00     0.054 A 
ATOM      9  C   UNL     1      -4.605  -0.194 -25.655  1.00  0.00     0.157 A 
BRANCH   7  10
ATOM     10  O   UNL     1      -6.152  -1.813 -24.906  1.00  0.00    -0.504 OA
ATOM     11  H   UNL     1      -5.929  -1.355 -24.077  1.00  0.00     0.293 HD
ENDBRANCH   7  10
BRANCH   9  12
ATOM     12  O   UNL     1      -4.830   0.522 -24.515  1.00  0.00    -0.504 OA
ATOM     13  H   UNL     1      -4.799   1.457 -24.804  1.00  0.00     0.293 HD
ENDBRANCH   9  12
ENDBRANCH   3   4
ENDBRANCH   2   3
BRANCH   2  14
ATOM     14  C   UNL     1      -3.322   0.091 -31.213  1.00  0.00     0.345 C 
ATOM     15  O   UNL     1      -3.327  -1.131 -31.244  1.00  0.00    -0.248 OA
BRANCH  14  16
ATOM     16  O   UNL     1      -3.412   0.845 -32.337  1.00  0.00    -0.478 OA
ATOM     17  H   UNL     1      -4.210   0.588 -32.847  1.00  0.00     0.296 HD
ENDBRANCH  14  16
ENDBRANCH   2  14
ENDBRANCH   1   2
BRANCH   1  18
ATOM     18  C   UNL     1      -5.019   2.439 -30.177  1.00  0.00     0.331 C 
ATOM     19  O   UNL     1      -4.466   3.524 -30.215  1.00  0.00    -0.247 OA
BRANCH  18  20
ATOM     20  C   UNL     1      -6.316   2.115 -30.801  1.00  0.00     0.094 C 
ATOM     21  C   UNL     1      -6.844   0.892 -30.636  1.00  0.00     0.016 C 
BRANCH  21  22
ATOM     22  C   UNL     1      -8.131   0.475 -31.209  1.00  0.00    -0.021 A 
ATOM     23  C   UNL     1      -8.924   1.438 -31.854  1.00  0.00     0.058 A 
ATOM     24  C   UNL     1      -8.612  -0.840 -31.086  1.00  0.00     0.012 A 
ATOM     25  C   UNL     1     -10.156   1.072 -32.385  1.00  0.00     0.157 A 
ATOM     26  C   UNL     1      -9.851  -1.199 -31.624  1.00  0.00     0.051 A 
ATOM     27  C   UNL     1     -10.611  -0.239 -32.272  1.00  0.00     0.157 A 
BRANCH  25  28
ATOM     28  O   UNL     1     -10.963   1.970 -33.029  1.00  0.00    -0.504 OA
ATOM     29  H   UNL     1     -10.568   2.854 -32.940  1.00  0.00     0.293 HD
ENDBRANCH  25  28
BRANCH  27  30
ATOM     30  O   UNL     1     -11.822  -0.589 -32.796  1.00  0.00    -0.504 OA
ATOM     31  H   UNL     1     -12.450   0.060 -32.419  1.00  0.00     0.293 HD
ENDBRANCH  27  30
ENDBRANCH  21  22
ENDBRANCH  18  20
ENDBRANCH   1  18
TORSDOF 12
ENDMDL
MODEL 5
REMARK VINA RESULT:      -7.7      2.489      6.293
REMARK SMILES O=C(C=Cc1ccc(O)c(O)c1)O[C@@H](Cc1ccc(O)c(O)c1)C(=O)O
REMARK SMILES IDX 13 1 14 2 15 3 16 4 17 5 18 6 19 7 23 8 21 9 20 10 22 12
REMARK SMILES IDX 24 14 25 15 26 16 2 18 1 19 3 20 4 21 5 22 12 23 6 24 10 25
REMARK SMILES IDX 7 26 8 27 11 28 9 30
REMARK H PARENT 20 11 22 13 26 17 11 29 9 31
ROOT
ATOM      1  O   UNL     1      -5.992  -0.172 -29.701  1.00  0.00    -0.447 OA
ENDROOT
BRANCH   1   2
ATOM      2  C   UNL     1      -5.465   0.735 -30.696  1.00  0.00     0.290 C 
BRANCH   2   3
ATOM      3  C   UNL     1      -6.485   1.814 -31.090  1.00  0.00     0.093 C 
BRANCH   3   4
ATOM      4  C   UNL     1      -7.727   1.263 -31.759  1.00  0.00    -0.040 A 
ATOM      5  C   UNL     1      -7.757   1.060 -33.150  1.00  0.00     0.008 A 
ATOM      6  C   UNL     1      -8.911   0.585 -33.780  1.00  0.00     0.050 A 
ATOM      7  C   UNL     1     -10.038   0.313 -33.015  1.00  0.00     0.157 A 
ATOM      8  C   UNL     1      -8.872   0.974 -31.003  1.00  0.00     0.054 A 
ATOM      9  C   UNL     1     -10.015   0.510 -31.637  1.00  0.00     0.157 A 
BRANCH   7  10
ATOM     10  O   UNL     1     -11.198  -0.147 -33.573  1.00  0.00    -0.504 OA
ATOM     11  H   UNL     1     -11.805  -0.386 -32.852  1.00  0.00     0.293 HD
ENDBRANCH   7  10
BRANCH   9  12
ATOM     12  O   UNL     1     -11.128   0.249 -30.892  1.00  0.00    -0.504 OA
ATOM     13  H   UNL     1     -10.782   0.066 -29.994  1.00  0.00     0.293 HD
ENDBRANCH   9  12
ENDBRANCH   3   4
ENDBRANCH   2   3
BRANCH   2  14
ATOM     14  C   UNL     1      -4.193   1.379 -30.151  1.00  0.00     0.345 C 
ATOM     15  O   UNL     1      -4.164   2.433 -29.531  1.00  0.00    -0.248 OA
BRANCH  14  16
ATOM     16  O   UNL     1      -3.072   0.660 -30.409  1.00  0.00    -0.478 OA
ATOM     17  H   UNL     1      -2.550   0.549 -29.585  1.00  0.00     0.296 HD
ENDBRANCH  14  16
ENDBRANCH   2  14
ENDBRANCH   1   2
BRANCH   1  18
ATOM     18  C   UNL     1      -5.634  -1.470 -29.872  1.00  0.00     0.331 C 
ATOM     19  O   UNL     1      -4.645  -1.873 -30.457  1.00  0.00    -0.247 OA
BRANCH  18  20
ATOM     20  C   UNL     1      -6.661  -2.317 -29.236  1.00  0.00     0.094 C 
ATOM     21  C   UNL     1      -7.694  -2.767 -29.966  1.00  0.00     0.016 C 
BRANCH  21  22
ATOM     22  C   UNL     1      -8.761  -3.622 -29.428  1.00  0.00    -0.021 A 
ATOM     23  C   UNL     1      -9.489  -4.430 -30.316  1.00  0.00     0.058 A 
ATOM     24  C   UNL     1      -9.107  -3.615 -28.065  1.00  0.00     0.012 A 
ATOM     25  C   UNL     1     -10.519  -5.231 -29.833  1.00  0.00     0.157 A 
ATOM     26  C   UNL     1     -10.143  -4.424 -27.589  1.00  0.00     0.051 A 
ATOM     27  C   UNL     1     -10.837  -5.228 -28.478  1.00  0.00     0.157 A 
BRANCH  25  28
ATOM     28  O   UNL     1     -11.253  -6.041 -30.655  1.00  0.00    -0.504 OA
ATOM     29  H   UNL     1     -11.876  -5.485 -31.155  1.00  0.00     0.293 HD
ENDBRANCH  25  28
BRANCH  27  30
ATOM     30  O   UNL     1     -11.850  -6.017 -28.013  1.00  0.00    -0.504 OA
ATOM     31  H   UNL     1     -12.027  -6.644 -28.742  1.00  0.00     0.293 HD
ENDBRANCH  27  30
ENDBRANCH  21  22
ENDBRANCH  18  20
ENDBRANCH   1  18
TORSDOF 12
ENDMDL
MODEL 6
REMARK VINA RESULT:      -7.6      1.765      5.851
REMARK SMILES O=C(C=Cc1ccc(O)c(O)c1)O[C@@H](Cc1ccc(O)c(O)c1)C(=O)O
REMARK SMILES IDX 13 1 14 2 15 3 16 4 17 5 18 6 19 7 23 8 21 9 20 10 22 12
REMARK SMILES IDX 24 14 25 15 26 16 2 18 1 19 3 20 4 21 5 22 12 23 6 24 10 25
REMARK SMILES IDX 7 26 8 27 11 28 9 30
REMARK H PARENT 20 11 22 13 26 17 11 29 9 31
ROOT
ATOM      1  O   UNL     1      -5.048   1.059 -29.435  1.00  0.00    -0.447 OA
ENDROOT
BRANCH   1   2
ATOM      2  C   UNL     1      -5.405   0.673 -30.781  1.00  0.00     0.290 C 
BRANCH   2   3
ATOM      3  C   UNL     1      -6.265   1.739 -31.477  1.00  0.00     0.093 C 
BRANCH   3   4
ATOM      4  C   UNL     1      -7.589   1.214 -31.990  1.00  0.00    -0.040 A 
ATOM      5  C   UNL     1      -7.748   0.887 -33.349  1.00  0.00     0.008 A 
ATOM      6  C   UNL     1      -8.977   0.434 -33.838  1.00  0.00     0.050 A 
ATOM      7  C   UNL     1     -10.050   0.311 -32.965  1.00  0.00     0.157 A 
ATOM      8  C   UNL     1      -8.682   1.074 -31.123  1.00  0.00     0.054 A 
ATOM      9  C   UNL     1      -9.900   0.631 -31.619  1.00  0.00     0.157 A 
BRANCH   7  10
ATOM     10  O   UNL     1     -11.278  -0.119 -33.383  1.00  0.00    -0.504 OA
ATOM     11  H   UNL     1     -11.885  -0.081 -32.625  1.00  0.00     0.293 HD
ENDBRANCH   7  10
BRANCH   9  12
ATOM     12  O   UNL     1     -10.960   0.515 -30.767  1.00  0.00    -0.504 OA
ATOM     13  H   UNL     1     -11.457  -0.259 -31.101  1.00  0.00     0.293 HD
ENDBRANCH   9  12
ENDBRANCH   3   4
ENDBRANCH   2   3
BRANCH   2  14
ATOM     14  C   UNL     1      -4.127   0.419 -31.576  1.00  0.00     0.345 C 
ATOM     15  O   UNL     1      -3.467  -0.609 -31.510  1.00  0.00    -0.248 OA
BRANCH  14  16
ATOM     16  O   UNL     1      -3.784   1.449 -32.389  1.00  0.00    -0.478 OA
ATOM     17  H   UNL     1      -4.528   1.658 -32.993  1.00  0.00     0.296 HD
ENDBRANCH  14  16
ENDBRANCH   2  14
ENDBRANCH   1   2
BRANCH   1  18
ATOM     18  C   UNL     1      -5.161   0.070 -28.513  1.00  0.00     0.331 C 
ATOM     19  O   UNL     1      -4.367  -0.182 -27.625  1.00  0.00    -0.247 OA
BRANCH  18  20
ATOM     20  C   UNL     1      -6.413  -0.665 -28.778  1.00  0.00     0.094 C 
ATOM     21  C   UNL     1      -6.360  -1.890 -29.324  1.00  0.00     0.016 C 
BRANCH  21  22
ATOM     22  C   UNL     1      -7.548  -2.703 -29.619  1.00  0.00    -0.021 A 
ATOM     23  C   UNL     1      -7.906  -3.721 -28.721  1.00  0.00     0.058 A 
ATOM     24  C   UNL     1      -8.301  -2.527 -30.793  1.00  0.00     0.012 A 
ATOM     25  C   UNL     1      -9.014  -4.519 -28.990  1.00  0.00     0.157 A 
ATOM     26  C   UNL     1      -9.413  -3.332 -31.055  1.00  0.00     0.051 A 
ATOM     27  C   UNL     1      -9.761  -4.319 -30.147  1.00  0.00     0.157 A 
BRANCH  25  28
ATOM     28  O   UNL     1      -9.410  -5.518 -28.144  1.00  0.00    -0.504 OA
ATOM     29  H   UNL     1     -10.090  -5.162 -27.547  1.00  0.00     0.293 HD
ENDBRANCH  25  28
BRANCH  27  30
ATOM     30  O   UNL     1     -10.847  -5.107 -30.404  1.00  0.00    -0.504 OA
ATOM     31  H   UNL     1     -11.616  -4.526 -30.241  1.00  0.00     0.293 HD
ENDBRANCH  27  30
ENDBRANCH  21  22
ENDBRANCH  18  20
ENDBRANCH   1  18
TORSDOF 12
ENDMDL
MODEL 7
REMARK VINA RESULT:      -7.4      2.546      4.888
REMARK SMILES O=C(C=Cc1ccc(O)c(O)c1)O[C@@H](Cc1ccc(O)c(O)c1)C(=O)O
REMARK SMILES IDX 13 1 14 2 15 3 16 4 17 5 18 6 19 7 23 8 21 9 20 10 22 12
REMARK SMILES IDX 24 14 25 15 26 16 2 18 1 19 3 20 4 21 5 22 12 23 6 24 10 25
REMARK SMILES IDX 7 26 8 27 11 28 9 30
REMARK H PARENT 20 11 22 13 26 17 11 29 9 31
ROOT
ATOM      1  O   UNL     1      -8.205  -0.219 -32.452  1.00  0.00    -0.447 OA
ENDROOT
BRANCH   1   2
ATOM      2  C   UNL     1      -9.199   0.648 -31.861  1.00  0.00     0.290 C 
BRANCH   2   3
ATOM      3  C   UNL     1      -8.637   2.045 -31.558  1.00  0.00     0.093 C 
BRANCH   3   4
ATOM      4  C   UNL     1      -7.482   2.037 -30.579  1.00  0.00    -0.040 A 
ATOM      5  C   UNL     1      -7.667   1.584 -29.261  1.00  0.00     0.008 A 
ATOM      6  C   UNL     1      -6.614   1.607 -28.341  1.00  0.00     0.050 A 
ATOM      7  C   UNL     1      -5.374   2.086 -28.742  1.00  0.00     0.157 A 
ATOM      8  C   UNL     1      -6.220   2.509 -30.967  1.00  0.00     0.054 A 
ATOM      9  C   UNL     1      -5.183   2.535 -30.046  1.00  0.00     0.157 A 
BRANCH   7  10
ATOM     10  O   UNL     1      -4.308   2.140 -27.888  1.00  0.00    -0.504 OA
ATOM     11  H   UNL     1      -4.637   1.991 -26.985  1.00  0.00     0.293 HD
ENDBRANCH   7  10
BRANCH   9  12
ATOM     12  O   UNL     1      -3.963   3.012 -30.432  1.00  0.00    -0.504 OA
ATOM     13  H   UNL     1      -3.434   2.209 -30.612  1.00  0.00     0.293 HD
ENDBRANCH   9  12
ENDBRANCH   3   4
ENDBRANCH   2   3
BRANCH   2  14
ATOM     14  C   UNL     1     -10.392   0.747 -32.808  1.00  0.00     0.345 C 
ATOM     15  O   UNL     1     -10.892  -0.205 -33.390  1.00  0.00    -0.248 OA
BRANCH  14  16
ATOM     16  O   UNL     1     -10.867   2.010 -32.944  1.00  0.00    -0.478 OA
ATOM     17  H   UNL     1     -10.497   2.421 -33.755  1.00  0.00     0.296 HD
ENDBRANCH  14  16
ENDBRANCH   2  14
ENDBRANCH   1   2
BRANCH   1  18
ATOM     18  C   UNL     1      -7.587  -1.052 -31.577  1.00  0.00     0.331 C 
ATOM     19  O   UNL     1      -6.415  -1.011 -31.248  1.00  0.00    -0.247 OA
BRANCH  18  20
ATOM     20  C   UNL     1      -8.579  -2.032 -31.096  1.00  0.00     0.094 C 
ATOM     21  C   UNL     1      -8.348  -2.706 -29.958  1.00  0.00     0.016 C 
BRANCH  21  22
ATOM     22  C   UNL     1      -9.276  -3.695 -29.393  1.00  0.00    -0.021 A 
ATOM     23  C   UNL     1      -9.936  -4.574 -30.266  1.00  0.00     0.058 A 
ATOM     24  C   UNL     1      -9.561  -3.751 -28.017  1.00  0.00     0.012 A 
ATOM     25  C   UNL     1     -10.836  -5.505 -29.757  1.00  0.00     0.157 A 
ATOM     26  C   UNL     1     -10.466  -4.690 -27.515  1.00  0.00     0.051 A 
ATOM     27  C   UNL     1     -11.093  -5.562 -28.390  1.00  0.00     0.157 A 
BRANCH  25  28
ATOM     28  O   UNL     1     -11.498  -6.389 -30.564  1.00  0.00    -0.504 OA
ATOM     29  H   UNL     1     -12.448  -6.179 -30.533  1.00  0.00     0.293 HD
ENDBRANCH  25  28
BRANCH  27  30
ATOM     30  O   UNL     1     -11.979  -6.478 -27.899  1.00  0.00    -0.504 OA
ATOM     31  H   UNL     1     -12.026  -6.284 -26.942  1.00  0.00     0.293 HD
ENDBRANCH  27  30
ENDBRANCH  21  22
ENDBRANCH  18  20
ENDBRANCH   1  18
TORSDOF 12
ENDMDL
MODEL 8
REMARK VINA RESULT:      -7.4      2.344      5.005
REMARK SMILES O=C(C=Cc1ccc(O)c(O)c1)O[C@@H](Cc1ccc(O)c(O)c1)C(=O)O
REMARK SMILES IDX 13 1 14 2 15 3 16 4 17 5 18 6 19 7 23 8 21 9 20 10 22 12
REMARK SMILES IDX 24 14 25 15 26 16 2 18 1 19 3 20 4 21 5 22 12 23 6 24 10 25
REMARK SMILES IDX 7 26 8 27 11 28 9 30
REMARK H PARENT 20 11 22 13 26 17 11 29 9 31
ROOT
ATOM      1  O   UNL     1      -7.131   0.392 -30.230  1.00  0.00    -0.447 OA
ENDROOT
BRANCH   1   2
ATOM      2  C   UNL     1      -6.823  -0.898 -30.804  1.00  0.00     0.290 C 
BRANCH   2   3
ATOM      3  C   UNL     1      -5.926  -1.739 -29.882  1.00  0.00     0.093 C 
BRANCH   3   4
ATOM      4  C   UNL     1      -4.763  -0.967 -29.295  1.00  0.00    -0.040 A 
ATOM      5  C   UNL     1      -3.609  -0.725 -30.060  1.00  0.00     0.008 A 
ATOM      6  C   UNL     1      -2.517  -0.044 -29.514  1.00  0.00     0.050 A 
ATOM      7  C   UNL     1      -2.580   0.394 -28.198  1.00  0.00     0.157 A 
ATOM      8  C   UNL     1      -4.811  -0.510 -27.970  1.00  0.00     0.054 A 
ATOM      9  C   UNL     1      -3.720   0.159 -27.434  1.00  0.00     0.157 A 
BRANCH   7  10
ATOM     10  O   UNL     1      -1.544   1.059 -27.605  1.00  0.00    -0.504 OA
ATOM     11  H   UNL     1      -1.750   1.158 -26.660  1.00  0.00     0.293 HD
ENDBRANCH   7  10
BRANCH   9  12
ATOM     12  O   UNL     1      -3.774   0.585 -26.138  1.00  0.00    -0.504 OA
ATOM     13  H   UNL     1      -4.710   0.840 -26.005  1.00  0.00     0.293 HD
ENDBRANCH   9  12
ENDBRANCH   3   4
ENDBRANCH   2   3
BRANCH   2  14
ATOM     14  C   UNL     1      -8.129  -1.634 -31.092  1.00  0.00     0.345 C 
ATOM     15  O   UNL     1      -8.748  -2.288 -30.265  1.00  0.00    -0.248 OA
BRANCH  14  16
ATOM     16  O   UNL     1      -8.559  -1.486 -32.370  1.00  0.00    -0.478 OA
ATOM     17  H   UNL     1      -7.862  -1.784 -32.993  1.00  0.00     0.296 HD
ENDBRANCH  14  16
ENDBRANCH   2  14
ENDBRANCH   1   2
BRANCH   1  18
ATOM     18  C   UNL     1      -7.184   1.412 -31.124  1.00  0.00     0.331 C 
ATOM     19  O   UNL     1      -8.062   1.605 -31.945  1.00  0.00    -0.247 OA
BRANCH  18  20
ATOM     20  C   UNL     1      -5.981   2.246 -30.942  1.00  0.00     0.094 C 
ATOM     21  C   UNL     1      -5.872   3.025 -29.855  1.00  0.00     0.016 C 
BRANCH  21  22
ATOM     22  C   UNL     1      -4.713   3.885 -29.580  1.00  0.00    -0.021 A 
ATOM     23  C   UNL     1      -4.324   4.822 -30.551  1.00  0.00     0.058 A 
ATOM     24  C   UNL     1      -3.954   3.761 -28.403  1.00  0.00     0.012 A 
ATOM     25  C   UNL     1      -3.216   5.631 -30.322  1.00  0.00     0.157 A 
ATOM     26  C   UNL     1      -2.843   4.579 -28.182  1.00  0.00     0.051 A 
ATOM     27  C   UNL     1      -2.486   5.511 -29.143  1.00  0.00     0.157 A 
BRANCH  25  28
ATOM     28  O   UNL     1      -2.801   6.564 -31.232  1.00  0.00    -0.504 OA
ATOM     29  H   UNL     1      -2.185   6.136 -31.851  1.00  0.00     0.293 HD
ENDBRANCH  25  28
BRANCH  27  30
ATOM     30  O   UNL     1      -1.400   6.309 -28.928  1.00  0.00    -0.504 OA
ATOM     31  H   UNL     1      -1.339   6.383 -27.955  1.00  0.00     0.293 HD
ENDBRANCH  27  30
ENDBRANCH  21  22
ENDBRANCH  18  20
ENDBRANCH   1  18
TORSDOF 12
ENDMDL
MODEL 9
REMARK VINA RESULT:      -7.3      1.829      3.861
REMARK SMILES O=C(C=Cc1ccc(O)c(O)c1)O[C@@H](Cc1ccc(O)c(O)c1)C(=O)O
REMARK SMILES IDX 13 1 14 2 15 3 16 4 17 5 18 6 19 7 23 8 21 9 20 10 22 12
REMARK SMILES IDX 24 14 25 15 26 16 2 18 1 19 3 20 4 21 5 22 12 23 6 24 10 25
REMARK SMILES IDX 7 26 8 27 11 28 9 30
REMARK H PARENT 20 11 22 13 26 17 11 29 9 31
ROOT
ATOM      1  O   UNL     1      -8.637   1.221 -31.912  1.00  0.00    -0.447 OA
ENDROOT
BRANCH   1   2
ATOM      2  C   UNL     1      -9.482   0.059 -31.742  1.00  0.00     0.290 C 
BRANCH   2   3
ATOM      3  C   UNL     1      -9.770  -0.231 -30.261  1.00  0.00     0.093 C 
BRANCH   3   4
ATOM      4  C   UNL     1      -8.600  -0.845 -29.522  1.00  0.00    -0.040 A 
ATOM      5  C   UNL     1      -7.863  -1.895 -30.100  1.00  0.00     0.008 A 
ATOM      6  C   UNL     1      -6.803  -2.491 -29.410  1.00  0.00     0.050 A 
ATOM      7  C   UNL     1      -6.483  -2.037 -28.137  1.00  0.00     0.157 A 
ATOM      8  C   UNL     1      -8.255  -0.395 -28.240  1.00  0.00     0.054 A 
ATOM      9  C   UNL     1      -7.207  -0.998 -27.559  1.00  0.00     0.157 A 
BRANCH   7  10
ATOM     10  O   UNL     1      -5.463  -2.583 -27.409  1.00  0.00    -0.504 OA
ATOM     11  H   UNL     1      -5.570  -2.303 -26.484  1.00  0.00     0.293 HD
ENDBRANCH   7  10
BRANCH   9  12
ATOM     12  O   UNL     1      -6.892  -0.561 -26.305  1.00  0.00    -0.504 OA
ATOM     13  H   UNL     1      -7.559  -0.983 -25.726  1.00  0.00     0.293 HD
ENDBRANCH   9  12
ENDBRANCH   3   4
ENDBRANCH   2   3
BRANCH   2  14
ATOM     14  C   UNL     1     -10.785   0.283 -32.505  1.00  0.00     0.345 C 
ATOM     15  O   UNL     1     -11.655  -0.564 -32.645  1.00  0.00    -0.248 OA
BRANCH  14  16
ATOM     16  O   UNL     1     -10.902   1.534 -33.014  1.00  0.00    -0.478 OA
ATOM     17  H   UNL     1     -10.120   1.743 -33.569  1.00  0.00     0.296 HD
ENDBRANCH  14  16
ENDBRANCH   2  14
ENDBRANCH   1   2
BRANCH   1  18
ATOM     18  C   UNL     1      -7.639   1.067 -32.819  1.00  0.00     0.331 C 
ATOM     19  O   UNL     1      -7.764   1.046 -34.030  1.00  0.00    -0.247 OA
BRANCH  18  20
ATOM     20  C   UNL     1      -6.369   0.915 -32.084  1.00  0.00     0.094 C 
ATOM     21  C   UNL     1      -6.205   1.539 -30.907  1.00  0.00     0.016 C 
BRANCH  21  22
ATOM     22  C   UNL     1      -4.982   1.444 -30.097  1.00  0.00    -0.021 A 
ATOM     23  C   UNL     1      -4.405   0.180 -29.896  1.00  0.00     0.058 A 
ATOM     24  C   UNL     1      -4.408   2.568 -29.478  1.00  0.00     0.012 A 
ATOM     25  C   UNL     1      -3.260   0.063 -29.114  1.00  0.00     0.157 A 
ATOM     26  C   UNL     1      -3.257   2.440 -28.696  1.00  0.00     0.051 A 
ATOM     27  C   UNL     1      -2.691   1.188 -28.524  1.00  0.00     0.157 A 
BRANCH  25  28
ATOM     28  O   UNL     1      -2.654  -1.144 -28.894  1.00  0.00    -0.504 OA
ATOM     29  H   UNL     1      -2.381  -1.183 -27.962  1.00  0.00     0.293 HD
ENDBRANCH  25  28
BRANCH  27  30
ATOM     30  O   UNL     1      -1.567   1.063 -27.758  1.00  0.00    -0.504 OA
ATOM     31  H   UNL     1      -1.859   0.555 -26.975  1.00  0.00     0.293 HD
ENDBRANCH  27  30
ENDBRANCH  21  22
ENDBRANCH  18  20
ENDBRANCH   1  18
TORSDOF 12
ENDMDL
MODEL 10
REMARK VINA RESULT:      -7.3      2.137      6.793
REMARK SMILES O=C(C=Cc1ccc(O)c(O)c1)O[C@@H](Cc1ccc(O)c(O)c1)C(=O)O
REMARK SMILES IDX 13 1 14 2 15 3 16 4 17 5 18 6 19 7 23 8 21 9 20 10 22 12
REMARK SMILES IDX 24 14 25 15 26 16 2 18 1 19 3 20 4 21 5 22 12 23 6 24 10 25
REMARK SMILES IDX 7 26 8 27 11 28 9 30
REMARK H PARENT 20 11 22 13 26 17 11 29 9 31
ROOT
ATOM      1  O   UNL     1      -3.091   0.456 -29.834  1.00  0.00    -0.447 OA
ENDROOT
BRANCH   1   2
ATOM      2  C   UNL     1      -3.743   1.150 -28.746  1.00  0.00     0.290 C 
BRANCH   2   3
ATOM      3  C   UNL     1      -3.330   0.591 -27.376  1.00  0.00     0.093 C 
BRANCH   3   4
ATOM      4  C   UNL     1      -4.489   0.061 -26.559  1.00  0.00    -0.040 A 
ATOM      5  C   UNL     1      -4.484   0.173 -25.157  1.00  0.00     0.008 A 
ATOM      6  C   UNL     1      -5.535  -0.344 -24.393  1.00  0.00     0.050 A 
ATOM      7  C   UNL     1      -6.591  -0.977 -25.034  1.00  0.00     0.157 A 
ATOM      8  C   UNL     1      -5.569  -0.574 -27.188  1.00  0.00     0.054 A 
ATOM      9  C   UNL     1      -6.604  -1.090 -26.422  1.00  0.00     0.157 A 
BRANCH   7  10
ATOM     10  O   UNL     1      -7.643  -1.509 -24.343  1.00  0.00    -0.504 OA
ATOM     11  H   UNL     1      -7.341  -1.708 -23.440  1.00  0.00     0.293 HD
ENDBRANCH   7  10
BRANCH   9  12
ATOM     12  O   UNL     1      -7.642  -1.721 -27.046  1.00  0.00    -0.504 OA
ATOM     13  H   UNL     1      -7.241  -2.528 -27.428  1.00  0.00     0.293 HD
ENDBRANCH   9  12
ENDBRANCH   3   4
ENDBRANCH   2   3
BRANCH   2  14
ATOM     14  C   UNL     1      -3.406   2.636 -28.838  1.00  0.00     0.345 C 
ATOM     15  O   UNL     1      -2.780   3.255 -27.990  1.00  0.00    -0.248 OA
BRANCH  14  16
ATOM     16  O   UNL     1      -3.862   3.221 -29.974  1.00  0.00    -0.478 OA
ATOM     17  H   UNL     1      -3.221   3.899 -30.279  1.00  0.00     0.296 HD
ENDBRANCH  14  16
ENDBRANCH   2  14
ENDBRANCH   1   2
BRANCH   1  18
ATOM     18  C   UNL     1      -3.868  -0.460 -30.467  1.00  0.00     0.331 C 
ATOM     19  O   UNL     1      -3.624  -1.646 -30.595  1.00  0.00    -0.247 OA
BRANCH  18  20
ATOM     20  C   UNL     1      -5.060   0.233 -30.992  1.00  0.00     0.094 C 
ATOM     21  C   UNL     1      -6.226  -0.427 -31.076  1.00  0.00     0.016 C 
BRANCH  21  22
ATOM     22  C   UNL     1      -7.469   0.176 -31.576  1.00  0.00    -0.021 A 
ATOM     23  C   UNL     1      -8.669  -0.091 -30.896  1.00  0.00     0.058 A 
ATOM     24  C   UNL     1      -7.501   0.964 -32.740  1.00  0.00     0.012 A 
ATOM     25  C   UNL     1      -9.861   0.451 -31.364  1.00  0.00     0.157 A 
ATOM     26  C   UNL     1      -8.704   1.505 -33.202  1.00  0.00     0.051 A 
ATOM     27  C   UNL     1      -9.874   1.246 -32.506  1.00  0.00     0.157 A 
BRANCH  25  28
ATOM     28  O   UNL     1     -11.054   0.228 -30.733  1.00  0.00    -0.504 OA
ATOM     29  H   UNL     1     -10.946  -0.530 -30.133  1.00  0.00     0.293 HD
ENDBRANCH  25  28
BRANCH  27  30
ATOM     30  O   UNL     1     -11.050   1.772 -32.959  1.00  0.00    -0.504 OA
ATOM     31  H   UNL     1     -11.343   2.369 -32.242  1.00  0.00     0.293 HD
ENDBRANCH  27  30
ENDBRANCH  21  22
ENDBRANCH  18  20
ENDBRANCH   1  18
TORSDOF 12
ENDMDL
