MODEL 1
REMARK VINA RESULT:      -9.9      0.000      0.000
REMARK SMILES O=C(/C=C/c1ccc(O)c(O)c1)O[C@@H]1C[C@@](OC(=O)/C=C/c2ccc(O)c(O)c2)(C(=O)O)C[C@@H](O)[C@@H]1O
REMARK SMILES IDX 33 1 34 2 36 3 14 4 15 5 16 6 35 7 17 9 18 10 19 11 20 12
REMARK SMILES IDX 21 13 22 14 29 15 23 16 27 17 24 18 25 19 28 20 26 22 30 24
REMARK SMILES IDX 31 25 32 26 37 28 13 30 2 31 1 32 3 33 4 34 5 35 12 36 6 37
REMARK SMILES IDX 10 38 7 39 8 40 11 41 9 43
REMARK H PARENT 35 8 28 21 26 23 32 27 37 29 11 42 9 44
ROOT
ATOM      1  C   UNL     1      -4.136  -1.899 -28.098  1.00  0.00     0.096 C 
ATOM      2  C   UNL     1      -3.396  -1.333 -29.315  1.00  0.00     0.151 C 
ATOM      3  C   UNL     1      -3.264   0.199 -29.280  1.00  0.00     0.184 C 
ATOM      4  C   UNL     1      -4.638   0.874 -29.097  1.00  0.00     0.212 C 
ATOM      5  C   UNL     1      -5.306   0.418 -27.796  1.00  0.00     0.109 C 
ATOM      6  C   UNL     1      -5.397  -1.113 -27.672  1.00  0.00     0.215 C 
ENDROOT
BRANCH   2   7
ATOM      7  O   UNL     1      -3.982  -1.789 -30.529  1.00  0.00    -0.390 OA
ATOM      8  H   UNL     1      -3.575  -1.357 -31.310  1.00  0.00     0.211 HD
ENDBRANCH   2   7
BRANCH   6   9
ATOM      9  O   UNL     1      -5.813  -1.514 -26.326  1.00  0.00    -0.444 OA
BRANCH   9  10
ATOM     10  C   UNL     1      -5.487  -0.724 -25.272  1.00  0.00     0.331 C 
ATOM     11  O   UNL     1      -4.450  -0.092 -25.151  1.00  0.00    -0.247 OA
BRANCH  10  12
ATOM     12  C   UNL     1      -6.554  -0.706 -24.252  1.00  0.00     0.094 C 
ATOM     13  C   UNL     1      -6.851  -1.741 -23.450  1.00  0.00     0.016 C 
BRANCH  13  14
ATOM     14  C   UNL     1      -7.896  -1.713 -22.414  1.00  0.00    -0.021 A 
ATOM     15  C   UNL     1      -8.088  -2.858 -21.623  1.00  0.00     0.058 A 
ATOM     16  C   UNL     1      -8.744  -0.607 -22.232  1.00  0.00     0.012 A 
ATOM     17  C   UNL     1      -9.094  -2.873 -20.660  1.00  0.00     0.157 A 
ATOM     18  C   UNL     1      -9.751  -0.632 -21.262  1.00  0.00     0.051 A 
ATOM     19  C   UNL     1      -9.915  -1.765 -20.484  1.00  0.00     0.157 A 
BRANCH  17  20
ATOM     20  O   UNL     1      -9.318  -3.962 -19.863  1.00  0.00    -0.504 OA
ATOM     21  H   UNL     1      -8.475  -4.228 -19.457  1.00  0.00     0.293 HD
ENDBRANCH  17  20
BRANCH  19  22
ATOM     22  O   UNL     1     -10.901  -1.789 -19.540  1.00  0.00    -0.504 OA
ATOM     23  H   UNL     1     -10.882  -2.699 -19.184  1.00  0.00     0.293 HD
ENDBRANCH  19  22
ENDBRANCH  13  14
ENDBRANCH  10  12
ENDBRANCH   9  10
ENDBRANCH   6   9
BRANCH   6  24
ATOM     24  C   UNL     1      -6.576  -1.560 -28.558  1.00  0.00     0.348 C 
ATOM     25  O   UNL     1      -6.521  -2.499 -29.341  1.00  0.00    -0.248 OA
BRANCH  24  26
ATOM     26  O   UNL     1      -7.684  -0.793 -28.434  1.00  0.00    -0.478 OA
ATOM     27  H   UNL     1      -8.474  -1.286 -28.739  1.00  0.00     0.296 HD
ENDBRANCH  24  26
ENDBRANCH   6  24
BRANCH   3  28
ATOM     28  O   UNL     1      -2.359   0.596 -28.237  1.00  0.00    -0.387 OA
ATOM     29  H   UNL     1      -2.364  -0.053 -27.511  1.00  0.00     0.211 HD
ENDBRANCH   3  28
BRANCH   4  30
ATOM     30  O   UNL     1      -4.497   2.310 -29.012  1.00  0.00    -0.456 OA
BRANCH  30  31
ATOM     31  C   UNL     1      -5.014   3.005 -30.055  1.00  0.00     0.331 C 
ATOM     32  O   UNL     1      -4.495   3.965 -30.604  1.00  0.00    -0.247 OA
BRANCH  31  33
ATOM     33  C   UNL     1      -6.306   2.454 -30.508  1.00  0.00     0.094 C 
ATOM     34  C   UNL     1      -6.532   1.943 -31.728  1.00  0.00     0.016 C 
BRANCH  34  35
ATOM     35  C   UNL     1      -7.831   1.394 -32.143  1.00  0.00    -0.021 A 
ATOM     36  C   UNL     1      -8.788   1.105 -31.157  1.00  0.00     0.058 A 
ATOM     37  C   UNL     1      -8.120   1.104 -33.487  1.00  0.00     0.012 A 
ATOM     38  C   UNL     1     -10.015   0.562 -31.529  1.00  0.00     0.157 A 
ATOM     39  C   UNL     1      -9.353   0.557 -33.850  1.00  0.00     0.051 A 
ATOM     40  C   UNL     1     -10.291   0.292 -32.866  1.00  0.00     0.157 A 
BRANCH  38  41
ATOM     41  O   UNL     1     -10.986   0.273 -30.610  1.00  0.00    -0.504 OA
ATOM     42  H   UNL     1     -11.836   0.202 -31.078  1.00  0.00     0.293 HD
ENDBRANCH  38  41
BRANCH  40  43
ATOM     43  O   UNL     1     -11.497  -0.242 -33.220  1.00  0.00    -0.504 OA
ATOM     44  H   UNL     1     -12.156   0.321 -32.770  1.00  0.00     0.293 HD
ENDBRANCH  40  43
ENDBRANCH  34  35
ENDBRANCH  31  33
ENDBRANCH  30  31
ENDBRANCH   4  30
TORSDOF 16
ENDMDL
MODEL 2
REMARK VINA RESULT:      -9.5      0.746      8.741
REMARK SMILES O=C(/C=C/c1ccc(O)c(O)c1)O[C@@H]1C[C@@](OC(=O)/C=C/c2ccc(O)c(O)c2)(C(=O)O)C[C@@H](O)[C@@H]1O
REMARK SMILES IDX 33 1 34 2 36 3 14 4 15 5 16 6 35 7 17 9 18 10 19 11 20 12
REMARK SMILES IDX 21 13 22 14 29 15 23 16 27 17 24 18 25 19 28 20 26 22 30 24
REMARK SMILES IDX 31 25 32 26 37 28 13 30 2 31 1 32 3 33 4 34 5 35 12 36 6 37
REMARK SMILES IDX 10 38 7 39 8 40 11 41 9 43
REMARK H PARENT 35 8 28 21 26 23 32 27 37 29 11 42 9 44
ROOT
ATOM      1  C   UNL     1      -4.259  -0.254 -30.424  1.00  0.00     0.096 C 
ATOM      2  C   UNL     1      -4.542  -1.610 -29.767  1.00  0.00     0.151 C 
ATOM      3  C   UNL     1      -5.557  -1.519 -28.615  1.00  0.00     0.184 C 
ATOM      4  C   UNL     1      -5.126  -0.471 -27.571  1.00  0.00     0.212 C 
ATOM      5  C   UNL     1      -4.994   0.917 -28.207  1.00  0.00     0.109 C 
ATOM      6  C   UNL     1      -4.078   0.926 -29.443  1.00  0.00     0.215 C 
ENDROOT
BRANCH   2   7
ATOM      7  O   UNL     1      -3.334  -2.246 -29.364  1.00  0.00    -0.390 OA
ATOM      8  H   UNL     1      -3.188  -2.162 -28.398  1.00  0.00     0.211 HD
ENDBRANCH   2   7
BRANCH   6   9
ATOM      9  O   UNL     1      -4.168   2.200 -30.162  1.00  0.00    -0.444 OA
BRANCH   9  10
ATOM     10  C   UNL     1      -5.225   3.016 -29.927  1.00  0.00     0.331 C 
ATOM     11  O   UNL     1      -5.170   4.122 -29.414  1.00  0.00    -0.247 OA
BRANCH  10  12
ATOM     12  C   UNL     1      -6.494   2.410 -30.377  1.00  0.00     0.094 C 
ATOM     13  C   UNL     1      -6.784   2.124 -31.657  1.00  0.00     0.016 C 
BRANCH  13  14
ATOM     14  C   UNL     1      -8.037   1.493 -32.101  1.00  0.00    -0.021 A 
ATOM     15  C   UNL     1      -9.014   1.189 -31.138  1.00  0.00     0.058 A 
ATOM     16  C   UNL     1      -8.261   1.129 -33.440  1.00  0.00     0.012 A 
ATOM     17  C   UNL     1     -10.193   0.557 -31.524  1.00  0.00     0.157 A 
ATOM     18  C   UNL     1      -9.449   0.495 -33.818  1.00  0.00     0.051 A 
ATOM     19  C   UNL     1     -10.405   0.216 -32.856  1.00  0.00     0.157 A 
BRANCH  17  20
ATOM     20  O   UNL     1     -11.176   0.245 -30.625  1.00  0.00    -0.504 OA
ATOM     21  H   UNL     1     -11.290  -0.721 -30.614  1.00  0.00     0.293 HD
ENDBRANCH  17  20
BRANCH  19  22
ATOM     22  O   UNL     1     -11.563  -0.405 -33.225  1.00  0.00    -0.504 OA
ATOM     23  H   UNL     1     -12.242  -0.048 -32.620  1.00  0.00     0.293 HD
ENDBRANCH  19  22
ENDBRANCH  13  14
ENDBRANCH  10  12
ENDBRANCH   9  10
ENDBRANCH   6   9
BRANCH   6  24
ATOM     24  C   UNL     1      -2.628   0.912 -28.922  1.00  0.00     0.348 C 
ATOM     25  O   UNL     1      -2.286   1.393 -27.850  1.00  0.00    -0.248 OA
BRANCH  24  26
ATOM     26  O   UNL     1      -1.738   0.355 -29.776  1.00  0.00    -0.478 OA
ATOM     27  H   UNL     1      -0.914   0.884 -29.799  1.00  0.00     0.296 HD
ENDBRANCH  24  26
ENDBRANCH   6  24
BRANCH   3  28
ATOM     28  O   UNL     1      -6.865  -1.219 -29.128  1.00  0.00    -0.387 OA
ATOM     29  H   UNL     1      -6.809  -0.886 -30.041  1.00  0.00     0.211 HD
ENDBRANCH   3  28
BRANCH   4  30
ATOM     30  O   UNL     1      -6.112  -0.356 -26.521  1.00  0.00    -0.456 OA
BRANCH  30  31
ATOM     31  C   UNL     1      -5.611  -0.208 -25.270  1.00  0.00     0.331 C 
ATOM     32  O   UNL     1      -4.446   0.025 -24.987  1.00  0.00    -0.247 OA
BRANCH  31  33
ATOM     33  C   UNL     1      -6.654  -0.332 -24.233  1.00  0.00     0.094 C 
ATOM     34  C   UNL     1      -6.870  -1.431 -23.495  1.00  0.00     0.016 C 
BRANCH  34  35
ATOM     35  C   UNL     1      -7.914  -1.516 -22.464  1.00  0.00    -0.021 A 
ATOM     36  C   UNL     1      -8.052  -2.710 -21.738  1.00  0.00     0.058 A 
ATOM     37  C   UNL     1      -8.807  -0.458 -22.222  1.00  0.00     0.012 A 
ATOM     38  C   UNL     1      -9.050  -2.817 -20.774  1.00  0.00     0.157 A 
ATOM     39  C   UNL     1      -9.807  -0.576 -21.253  1.00  0.00     0.051 A 
ATOM     40  C   UNL     1      -9.919  -1.756 -20.537  1.00  0.00     0.157 A 
BRANCH  38  41
ATOM     41  O   UNL     1      -9.220  -3.953 -20.031  1.00  0.00    -0.504 OA
ATOM     42  H   UNL     1      -9.713  -3.718 -19.226  1.00  0.00     0.293 HD
ENDBRANCH  38  41
BRANCH  40  43
ATOM     43  O   UNL     1     -10.896  -1.871 -19.590  1.00  0.00    -0.504 OA
ATOM     44  H   UNL     1     -11.729  -1.906 -20.100  1.00  0.00     0.293 HD
ENDBRANCH  40  43
ENDBRANCH  34  35
ENDBRANCH  31  33
ENDBRANCH  30  31
ENDBRANCH   4  30
TORSDOF 16
ENDMDL
MODEL 3
REMARK VINA RESULT:      -9.4      3.108      3.659
REMARK SMILES O=C(/C=C/c1ccc(O)c(O)c1)O[C@@H]1C[C@@](OC(=O)/C=C/c2ccc(O)c(O)c2)(C(=O)O)C[C@@H](O)[C@@H]1O
REMARK SMILES IDX 33 1 34 2 36 3 14 4 15 5 16 6 35 7 17 9 18 10 19 11 20 12
REMARK SMILES IDX 21 13 22 14 29 15 23 16 27 17 24 18 25 19 28 20 26 22 30 24
REMARK SMILES IDX 31 25 32 26 37 28 13 30 2 31 1 32 3 33 4 34 5 35 12 36 6 37
REMARK SMILES IDX 10 38 7 39 8 40 11 41 9 43
REMARK H PARENT 35 8 28 21 26 23 32 27 37 29 11 42 9 44
ROOT
ATOM      1  C   UNL     1      -3.229  -1.231 -28.658  1.00  0.00     0.096 C 
ATOM      2  C   UNL     1      -2.371  -0.020 -28.273  1.00  0.00     0.151 C 
ATOM      3  C   UNL     1      -3.207   1.200 -27.851  1.00  0.00     0.184 C 
ATOM      4  C   UNL     1      -4.243   1.568 -28.931  1.00  0.00     0.212 C 
ATOM      5  C   UNL     1      -5.196   0.400 -29.201  1.00  0.00     0.109 C 
ATOM      6  C   UNL     1      -4.462  -0.910 -29.533  1.00  0.00     0.215 C 
ENDROOT
BRANCH   2   7
ATOM      7  O   UNL     1      -1.444   0.300 -29.305  1.00  0.00    -0.390 OA
ATOM      8  H   UNL     1      -1.156  -0.501 -29.791  1.00  0.00     0.211 HD
ENDBRANCH   2   7
BRANCH   6   9
ATOM      9  O   UNL     1      -5.384  -2.048 -29.544  1.00  0.00    -0.444 OA
BRANCH   9  10
ATOM     10  C   UNL     1      -6.661  -1.859 -29.962  1.00  0.00     0.331 C 
ATOM     11  O   UNL     1      -7.004  -1.593 -31.102  1.00  0.00    -0.247 OA
BRANCH  10  12
ATOM     12  C   UNL     1      -7.627  -2.017 -28.856  1.00  0.00     0.094 C 
ATOM     13  C   UNL     1      -8.939  -1.749 -28.954  1.00  0.00     0.016 C 
BRANCH  13  14
ATOM     14  C   UNL     1      -9.906  -1.935 -27.860  1.00  0.00    -0.021 A 
ATOM     15  C   UNL     1     -10.028  -3.209 -27.282  1.00  0.00     0.058 A 
ATOM     16  C   UNL     1     -10.751  -0.900 -27.421  1.00  0.00     0.012 A 
ATOM     17  C   UNL     1     -10.962  -3.423 -26.271  1.00  0.00     0.157 A 
ATOM     18  C   UNL     1     -11.685  -1.126 -26.405  1.00  0.00     0.051 A 
ATOM     19  C   UNL     1     -11.781  -2.385 -25.839  1.00  0.00     0.157 A 
BRANCH  17  20
ATOM     20  O   UNL     1     -11.116  -4.644 -25.673  1.00  0.00    -0.504 OA
ATOM     21  H   UNL     1     -11.399  -4.505 -24.753  1.00  0.00     0.293 HD
ENDBRANCH  17  20
BRANCH  19  22
ATOM     22  O   UNL     1     -12.695  -2.604 -24.849  1.00  0.00    -0.504 OA
ATOM     23  H   UNL     1     -12.684  -1.786 -24.314  1.00  0.00     0.293 HD
ENDBRANCH  19  22
ENDBRANCH  13  14
ENDBRANCH  10  12
ENDBRANCH   9  10
ENDBRANCH   6   9
BRANCH   6  24
ATOM     24  C   UNL     1      -4.007  -0.805 -31.001  1.00  0.00     0.348 C 
ATOM     25  O   UNL     1      -3.053  -1.415 -31.464  1.00  0.00    -0.248 OA
BRANCH  24  26
ATOM     26  O   UNL     1      -4.731   0.065 -31.743  1.00  0.00    -0.478 OA
ATOM     27  H   UNL     1      -5.673   0.037 -31.475  1.00  0.00     0.296 HD
ENDBRANCH  24  26
ENDBRANCH   6  24
BRANCH   3  28
ATOM     28  O   UNL     1      -3.853   0.947 -26.592  1.00  0.00    -0.387 OA
ATOM     29  H   UNL     1      -3.195   0.756 -25.899  1.00  0.00     0.211 HD
ENDBRANCH   3  28
BRANCH   4  30
ATOM     30  O   UNL     1      -5.057   2.682 -28.502  1.00  0.00    -0.456 OA
BRANCH  30  31
ATOM     31  C   UNL     1      -5.613   3.412 -29.501  1.00  0.00     0.331 C 
ATOM     32  O   UNL     1      -5.213   4.491 -29.907  1.00  0.00    -0.247 OA
BRANCH  31  33
ATOM     33  C   UNL     1      -6.784   2.740 -30.098  1.00  0.00     0.094 C 
ATOM     34  C   UNL     1      -6.868   2.351 -31.380  1.00  0.00     0.016 C 
BRANCH  34  35
ATOM     35  C   UNL     1      -8.047   1.675 -31.940  1.00  0.00    -0.021 A 
ATOM     36  C   UNL     1      -9.076   1.279 -31.071  1.00  0.00     0.058 A 
ATOM     37  C   UNL     1      -8.148   1.370 -33.308  1.00  0.00     0.012 A 
ATOM     38  C   UNL     1     -10.189   0.617 -31.580  1.00  0.00     0.157 A 
ATOM     39  C   UNL     1      -9.269   0.703 -33.810  1.00  0.00     0.051 A 
ATOM     40  C   UNL     1     -10.281   0.333 -32.939  1.00  0.00     0.157 A 
BRANCH  38  41
ATOM     41  O   UNL     1     -11.223   0.219 -30.779  1.00  0.00    -0.504 OA
ATOM     42  H   UNL     1     -11.661   1.015 -30.431  1.00  0.00     0.293 HD
ENDBRANCH  38  41
BRANCH  40  43
ATOM     43  O   UNL     1     -11.376  -0.319 -33.429  1.00  0.00    -0.504 OA
ATOM     44  H   UNL     1     -11.371  -0.121 -34.387  1.00  0.00     0.293 HD
ENDBRANCH  40  43
ENDBRANCH  34  35
ENDBRANCH  31  33
ENDBRANCH  30  31
ENDBRANCH   4  30
TORSDOF 16
ENDMDL
MODEL 4
REMARK VINA RESULT:      -9.4      3.412      7.258
REMARK SMILES O=C(/C=C/c1ccc(O)c(O)c1)O[C@@H]1C[C@@](OC(=O)/C=C/c2ccc(O)c(O)c2)(C(=O)O)C[C@@H](O)[C@@H]1O
REMARK SMILES IDX 33 1 34 2 36 3 14 4 15 5 16 6 35 7 17 9 18 10 19 11 20 12
REMARK SMILES IDX 21 13 22 14 29 15 23 16 27 17 24 18 25 19 28 20 26 22 30 24
REMARK SMILES IDX 31 25 32 26 37 28 13 30 2 31 1 32 3 33 4 34 5 35 12 36 6 37
REMARK SMILES IDX 10 38 7 39 8 40 11 41 9 43
REMARK H PARENT 35 8 28 21 26 23 32 27 37 29 11 42 9 44
ROOT
ATOM      1  C   UNL     1     -11.134  -2.532 -25.031  1.00  0.00     0.096 C 
ATOM      2  C   UNL     1     -11.880  -3.788 -25.497  1.00  0.00     0.151 C 
ATOM      3  C   UNL     1     -11.005  -4.730 -26.341  1.00  0.00     0.184 C 
ATOM      4  C   UNL     1     -10.368  -3.985 -27.530  1.00  0.00     0.212 C 
ATOM      5  C   UNL     1      -9.496  -2.821 -27.047  1.00  0.00     0.109 C 
ATOM      6  C   UNL     1     -10.243  -1.863 -26.103  1.00  0.00     0.215 C 
ENDROOT
BRANCH   2   7
ATOM      7  O   UNL     1     -13.091  -3.446 -26.163  1.00  0.00    -0.390 OA
ATOM      8  H   UNL     1     -12.919  -3.056 -27.046  1.00  0.00     0.211 HD
ENDBRANCH   2   7
BRANCH   6   9
ATOM      9  O   UNL     1      -9.323  -0.913 -25.474  1.00  0.00    -0.444 OA
BRANCH   9  10
ATOM     10  C   UNL     1      -8.079  -1.329 -25.127  1.00  0.00     0.331 C 
ATOM     11  O   UNL     1      -7.802  -2.005 -24.150  1.00  0.00    -0.247 OA
BRANCH  10  12
ATOM     12  C   UNL     1      -7.060  -0.865 -26.089  1.00  0.00     0.094 C 
ATOM     13  C   UNL     1      -5.781  -1.274 -26.093  1.00  0.00     0.016 C 
BRANCH  13  14
ATOM     14  C   UNL     1      -4.773  -0.834 -27.070  1.00  0.00    -0.021 A 
ATOM     15  C   UNL     1      -4.693  -1.507 -28.301  1.00  0.00     0.058 A 
ATOM     16  C   UNL     1      -3.851   0.190 -26.789  1.00  0.00     0.012 A 
ATOM     17  C   UNL     1      -3.724  -1.137 -29.230  1.00  0.00     0.157 A 
ATOM     18  C   UNL     1      -2.882   0.554 -27.729  1.00  0.00     0.051 A 
ATOM     19  C   UNL     1      -2.828  -0.113 -28.942  1.00  0.00     0.157 A 
BRANCH  17  20
ATOM     20  O   UNL     1      -3.609  -1.757 -30.443  1.00  0.00    -0.504 OA
ATOM     21  H   UNL     1      -3.537  -2.716 -30.296  1.00  0.00     0.293 HD
ENDBRANCH  17  20
BRANCH  19  22
ATOM     22  O   UNL     1      -1.879   0.242 -29.857  1.00  0.00    -0.504 OA
ATOM     23  H   UNL     1      -2.121   1.150 -30.127  1.00  0.00     0.293 HD
ENDBRANCH  19  22
ENDBRANCH  13  14
ENDBRANCH  10  12
ENDBRANCH   9  10
ENDBRANCH   6   9
BRANCH   6  24
ATOM     24  C   UNL     1     -11.131  -0.968 -26.989  1.00  0.00     0.348 C 
ATOM     25  O   UNL     1     -12.294  -0.692 -26.728  1.00  0.00    -0.248 OA
BRANCH  24  26
ATOM     26  O   UNL     1     -10.527  -0.539 -28.122  1.00  0.00    -0.478 OA
ATOM     27  H   UNL     1     -10.732  -1.144 -28.865  1.00  0.00     0.296 HD
ENDBRANCH  24  26
ENDBRANCH   6  24
BRANCH   3  28
ATOM     28  O   UNL     1      -9.995  -5.337 -25.520  1.00  0.00    -0.387 OA
ATOM     29  H   UNL     1      -9.448  -5.951 -26.043  1.00  0.00     0.211 HD
ENDBRANCH   3  28
BRANCH   4  30
ATOM     30  O   UNL     1      -9.507  -4.865 -28.286  1.00  0.00    -0.456 OA
BRANCH  30  31
ATOM     31  C   UNL     1      -9.749  -4.909 -29.619  1.00  0.00     0.331 C 
ATOM     32  O   UNL     1     -10.450  -5.728 -30.193  1.00  0.00    -0.247 OA
BRANCH  31  33
ATOM     33  C   UNL     1      -9.083  -3.810 -30.344  1.00  0.00     0.094 C 
ATOM     34  C   UNL     1      -9.712  -2.738 -30.851  1.00  0.00     0.016 C 
BRANCH  34  35
ATOM     35  C   UNL     1      -9.015  -1.656 -31.561  1.00  0.00    -0.021 A 
ATOM     36  C   UNL     1      -7.726  -1.292 -31.139  1.00  0.00     0.058 A 
ATOM     37  C   UNL     1      -9.620  -0.946 -32.611  1.00  0.00     0.012 A 
ATOM     38  C   UNL     1      -7.060  -0.254 -31.783  1.00  0.00     0.157 A 
ATOM     39  C   UNL     1      -8.944   0.096 -33.251  1.00  0.00     0.051 A 
ATOM     40  C   UNL     1      -7.667   0.432 -32.830  1.00  0.00     0.157 A 
BRANCH  38  41
ATOM     41  O   UNL     1      -5.799   0.133 -31.419  1.00  0.00    -0.504 OA
ATOM     42  H   UNL     1      -5.210   0.006 -32.183  1.00  0.00     0.293 HD
ENDBRANCH  38  41
BRANCH  40  43
ATOM     43  O   UNL     1      -7.006   1.451 -33.456  1.00  0.00    -0.504 OA
ATOM     44  H   UNL     1      -7.557   2.240 -33.287  1.00  0.00     0.293 HD
ENDBRANCH  40  43
ENDBRANCH  34  35
ENDBRANCH  31  33
ENDBRANCH  30  31
ENDBRANCH   4  30
TORSDOF 16
ENDMDL
MODEL 5
REMARK VINA RESULT:      -9.4      2.794      7.650
REMARK SMILES O=C(/C=C/c1ccc(O)c(O)c1)O[C@@H]1C[C@@](OC(=O)/C=C/c2ccc(O)c(O)c2)(C(=O)O)C[C@@H](O)[C@@H]1O
REMARK SMILES IDX 33 1 34 2 36 3 14 4 15 5 16 6 35 7 17 9 18 10 19 11 20 12
REMARK SMILES IDX 21 13 22 14 29 15 23 16 27 17 24 18 25 19 28 20 26 22 30 24
REMARK SMILES IDX 31 25 32 26 37 28 13 30 2 31 1 32 3 33 4 34 5 35 12 36 6 37
REMARK SMILES IDX 10 38 7 39 8 40 11 41 9 43
REMARK H PARENT 35 8 28 21 26 23 32 27 37 29 11 42 9 44
ROOT
ATOM      1  C   UNL     1      -4.345  -1.676 -30.025  1.00  0.00     0.096 C 
ATOM      2  C   UNL     1      -3.499  -1.655 -28.746  1.00  0.00     0.151 C 
ATOM      3  C   UNL     1      -4.343  -1.504 -27.469  1.00  0.00     0.184 C 
ATOM      4  C   UNL     1      -5.265  -0.271 -27.551  1.00  0.00     0.212 C 
ATOM      5  C   UNL     1      -6.216  -0.373 -28.748  1.00  0.00     0.109 C 
ATOM      6  C   UNL     1      -5.484  -0.633 -30.076  1.00  0.00     0.215 C 
ENDROOT
BRANCH   2   7
ATOM      7  O   UNL     1      -2.474  -0.671 -28.827  1.00  0.00    -0.390 OA
ATOM      8  H   UNL     1      -1.634  -0.995 -28.437  1.00  0.00     0.211 HD
ENDBRANCH   2   7
BRANCH   6   9
ATOM      9  O   UNL     1      -6.427  -0.965 -31.147  1.00  0.00    -0.444 OA
BRANCH   9  10
ATOM     10  C   UNL     1      -7.691  -0.476 -31.088  1.00  0.00     0.331 C 
ATOM     11  O   UNL     1      -8.050   0.619 -31.489  1.00  0.00    -0.247 OA
BRANCH  10  12
ATOM     12  C   UNL     1      -8.622  -1.441 -30.469  1.00  0.00     0.094 C 
ATOM     13  C   UNL     1      -8.388  -2.760 -30.367  1.00  0.00     0.016 C 
BRANCH  13  14
ATOM     14  C   UNL     1      -9.302  -3.716 -29.724  1.00  0.00    -0.021 A 
ATOM     15  C   UNL     1      -9.275  -3.833 -28.324  1.00  0.00     0.058 A 
ATOM     16  C   UNL     1     -10.152  -4.557 -30.464  1.00  0.00     0.012 A 
ATOM     17  C   UNL     1     -10.102  -4.757 -27.691  1.00  0.00     0.157 A 
ATOM     18  C   UNL     1     -10.979  -5.481 -29.819  1.00  0.00     0.051 A 
ATOM     19  C   UNL     1     -10.947  -5.572 -28.438  1.00  0.00     0.157 A 
BRANCH  17  20
ATOM     20  O   UNL     1     -10.116  -4.906 -26.332  1.00  0.00    -0.504 OA
ATOM     21  H   UNL     1     -11.040  -4.982 -26.037  1.00  0.00     0.293 HD
ENDBRANCH  17  20
BRANCH  19  22
ATOM     22  O   UNL     1     -11.753  -6.477 -27.810  1.00  0.00    -0.504 OA
ATOM     23  H   UNL     1     -11.414  -6.519 -26.894  1.00  0.00     0.293 HD
ENDBRANCH  19  22
ENDBRANCH  13  14
ENDBRANCH  10  12
ENDBRANCH   9  10
ENDBRANCH   6   9
BRANCH   6  24
ATOM     24  C   UNL     1      -4.892   0.717 -30.528  1.00  0.00     0.348 C 
ATOM     25  O   UNL     1      -5.338   1.804 -30.186  1.00  0.00    -0.248 OA
BRANCH  24  26
ATOM     26  O   UNL     1      -3.849   0.604 -31.382  1.00  0.00    -0.478 OA
ATOM     27  H   UNL     1      -3.338   1.440 -31.405  1.00  0.00     0.296 HD
ENDBRANCH  24  26
ENDBRANCH   6  24
BRANCH   3  28
ATOM     28  O   UNL     1      -5.109  -2.697 -27.236  1.00  0.00    -0.387 OA
ATOM     29  H   UNL     1      -5.520  -3.010 -28.061  1.00  0.00     0.211 HD
ENDBRANCH   3  28
BRANCH   4  30
ATOM     30  O   UNL     1      -6.090  -0.168 -26.370  1.00  0.00    -0.456 OA
BRANCH  30  31
ATOM     31  C   UNL     1      -5.418  -0.144 -25.193  1.00  0.00     0.331 C 
ATOM     32  O   UNL     1      -4.329   0.374 -25.000  1.00  0.00    -0.247 OA
BRANCH  31  33
ATOM     33  C   UNL     1      -6.168  -0.806 -24.108  1.00  0.00     0.094 C 
ATOM     34  C   UNL     1      -7.444  -0.539 -23.789  1.00  0.00     0.016 C 
BRANCH  34  35
ATOM     35  C   UNL     1      -8.164  -1.225 -22.707  1.00  0.00    -0.021 A 
ATOM     36  C   UNL     1      -8.093  -2.625 -22.629  1.00  0.00     0.058 A 
ATOM     37  C   UNL     1      -8.959  -0.525 -21.784  1.00  0.00     0.012 A 
ATOM     38  C   UNL     1      -8.788  -3.294 -21.625  1.00  0.00     0.157 A 
ATOM     39  C   UNL     1      -9.654  -1.206 -20.781  1.00  0.00     0.051 A 
ATOM     40  C   UNL     1      -9.561  -2.586 -20.710  1.00  0.00     0.157 A 
BRANCH  38  41
ATOM     41  O   UNL     1      -8.744  -4.655 -21.498  1.00  0.00    -0.504 OA
ATOM     42  H   UNL     1      -9.215  -4.899 -20.683  1.00  0.00     0.293 HD
ENDBRANCH  38  41
BRANCH  40  43
ATOM     43  O   UNL     1     -10.240  -3.251 -19.730  1.00  0.00    -0.504 OA
ATOM     44  H   UNL     1     -10.936  -3.746 -20.206  1.00  0.00     0.293 HD
ENDBRANCH  40  43
ENDBRANCH  34  35
ENDBRANCH  31  33
ENDBRANCH  30  31
ENDBRANCH   4  30
TORSDOF 16
ENDMDL
MODEL 6
REMARK VINA RESULT:      -9.4      3.210      5.399
REMARK SMILES O=C(/C=C/c1ccc(O)c(O)c1)O[C@@H]1C[C@@](OC(=O)/C=C/c2ccc(O)c(O)c2)(C(=O)O)C[C@@H](O)[C@@H]1O
REMARK SMILES IDX 33 1 34 2 36 3 14 4 15 5 16 6 35 7 17 9 18 10 19 11 20 12
REMARK SMILES IDX 21 13 22 14 29 15 23 16 27 17 24 18 25 19 28 20 26 22 30 24
REMARK SMILES IDX 31 25 32 26 37 28 13 30 2 31 1 32 3 33 4 34 5 35 12 36 6 37
REMARK SMILES IDX 10 38 7 39 8 40 11 41 9 43
REMARK H PARENT 35 8 28 21 26 23 32 27 37 29 11 42 9 44
ROOT
ATOM      1  C   UNL     1      -5.103   0.666 -29.564  1.00  0.00     0.096 C 
ATOM      2  C   UNL     1      -5.395   0.176 -30.987  1.00  0.00     0.151 C 
ATOM      3  C   UNL     1      -6.764  -0.513 -31.116  1.00  0.00     0.184 C 
ATOM      4  C   UNL     1      -6.916  -1.652 -30.090  1.00  0.00     0.212 C 
ATOM      5  C   UNL     1      -6.775  -1.126 -28.658  1.00  0.00     0.109 C 
ATOM      6  C   UNL     1      -5.481  -0.323 -28.438  1.00  0.00     0.215 C 
ENDROOT
BRANCH   2   7
ATOM      7  O   UNL     1      -4.338  -0.644 -31.474  1.00  0.00    -0.390 OA
ATOM      8  H   UNL     1      -3.475  -0.180 -31.435  1.00  0.00     0.211 HD
ENDBRANCH   2   7
BRANCH   6   9
ATOM      9  O   UNL     1      -5.495   0.364 -27.145  1.00  0.00    -0.444 OA
BRANCH   9  10
ATOM     10  C   UNL     1      -6.681   0.564 -26.517  1.00  0.00     0.331 C 
ATOM     11  O   UNL     1      -7.488   1.441 -26.781  1.00  0.00    -0.247 OA
BRANCH  10  12
ATOM     12  C   UNL     1      -6.905  -0.426 -25.444  1.00  0.00     0.094 C 
ATOM     13  C   UNL     1      -8.019  -0.493 -24.697  1.00  0.00     0.016 C 
BRANCH  13  14
ATOM     14  C   UNL     1      -8.253  -1.498 -23.648  1.00  0.00    -0.021 A 
ATOM     15  C   UNL     1      -9.510  -2.124 -23.587  1.00  0.00     0.058 A 
ATOM     16  C   UNL     1      -7.289  -1.805 -22.672  1.00  0.00     0.012 A 
ATOM     17  C   UNL     1      -9.773  -3.051 -22.582  1.00  0.00     0.157 A 
ATOM     18  C   UNL     1      -7.562  -2.738 -21.668  1.00  0.00     0.051 A 
ATOM     19  C   UNL     1      -8.802  -3.353 -21.633  1.00  0.00     0.157 A 
BRANCH  17  20
ATOM     20  O   UNL     1     -10.978  -3.690 -22.483  1.00  0.00    -0.504 OA
ATOM     21  H   UNL     1     -10.818  -4.616 -22.231  1.00  0.00     0.293 HD
ENDBRANCH  17  20
BRANCH  19  22
ATOM     22  O   UNL     1      -9.069  -4.261 -20.649  1.00  0.00    -0.504 OA
ATOM     23  H   UNL     1      -8.476  -5.015 -20.839  1.00  0.00     0.293 HD
ENDBRANCH  19  22
ENDBRANCH  13  14
ENDBRANCH  10  12
ENDBRANCH   9  10
ENDBRANCH   6   9
BRANCH   6  24
ATOM     24  C   UNL     1      -4.343  -1.350 -28.284  1.00  0.00     0.348 C 
ATOM     25  O   UNL     1      -3.244  -1.232 -28.811  1.00  0.00    -0.248 OA
BRANCH  24  26
ATOM     26  O   UNL     1      -4.672  -2.434 -27.545  1.00  0.00    -0.478 OA
ATOM     27  H   UNL     1      -5.079  -2.156 -26.698  1.00  0.00     0.296 HD
ENDBRANCH  24  26
ENDBRANCH   6  24
BRANCH   3  28
ATOM     28  O   UNL     1      -7.820   0.450 -30.968  1.00  0.00    -0.387 OA
ATOM     29  H   UNL     1      -8.691   0.017 -31.014  1.00  0.00     0.211 HD
ENDBRANCH   3  28
BRANCH   4  30
ATOM     30  O   UNL     1      -8.224  -2.258 -30.185  1.00  0.00    -0.456 OA
BRANCH  30  31
ATOM     31  C   UNL     1      -8.251  -3.607 -30.047  1.00  0.00     0.331 C 
ATOM     32  O   UNL     1      -7.569  -4.404 -30.673  1.00  0.00    -0.247 OA
BRANCH  31  33
ATOM     33  C   UNL     1      -9.200  -4.043 -29.004  1.00  0.00     0.094 C 
ATOM     34  C   UNL     1      -9.768  -3.229 -28.101  1.00  0.00     0.016 C 
BRANCH  34  35
ATOM     35  C   UNL     1     -10.717  -3.697 -27.081  1.00  0.00    -0.021 A 
ATOM     36  C   UNL     1     -11.650  -2.788 -26.557  1.00  0.00     0.058 A 
ATOM     37  C   UNL     1     -10.682  -5.010 -26.580  1.00  0.00     0.012 A 
ATOM     38  C   UNL     1     -12.540  -3.207 -25.573  1.00  0.00     0.157 A 
ATOM     39  C   UNL     1     -11.579  -5.421 -25.591  1.00  0.00     0.051 A 
ATOM     40  C   UNL     1     -12.502  -4.514 -25.097  1.00  0.00     0.157 A 
BRANCH  38  41
ATOM     41  O   UNL     1     -13.476  -2.365 -25.038  1.00  0.00    -0.504 OA
ATOM     42  H   UNL     1     -13.009  -1.636 -24.594  1.00  0.00     0.293 HD
ENDBRANCH  38  41
BRANCH  40  43
ATOM     43  O   UNL     1     -13.379  -4.915 -24.130  1.00  0.00    -0.504 OA
ATOM     44  H   UNL     1     -13.159  -4.362 -23.355  1.00  0.00     0.293 HD
ENDBRANCH  40  43
ENDBRANCH  34  35
ENDBRANCH  31  33
ENDBRANCH  30  31
ENDBRANCH   4  30
TORSDOF 16
ENDMDL
MODEL 7
REMARK VINA RESULT:      -9.2      2.701      7.680
REMARK SMILES O=C(/C=C/c1ccc(O)c(O)c1)O[C@@H]1C[C@@](OC(=O)/C=C/c2ccc(O)c(O)c2)(C(=O)O)C[C@@H](O)[C@@H]1O
REMARK SMILES IDX 33 1 34 2 36 3 14 4 15 5 16 6 35 7 17 9 18 10 19 11 20 12
REMARK SMILES IDX 21 13 22 14 29 15 23 16 27 17 24 18 25 19 28 20 26 22 30 24
REMARK SMILES IDX 31 25 32 26 37 28 13 30 2 31 1 32 3 33 4 34 5 35 12 36 6 37
REMARK SMILES IDX 10 38 7 39 8 40 11 41 9 43
REMARK H PARENT 35 8 28 21 26 23 32 27 37 29 11 42 9 44
ROOT
ATOM      1  C   UNL     1     -10.394  -1.556 -22.689  1.00  0.00     0.096 C 
ATOM      2  C   UNL     1     -10.039  -0.152 -22.184  1.00  0.00     0.151 C 
ATOM      3  C   UNL     1      -9.159   0.637 -23.170  1.00  0.00     0.184 C 
ATOM      4  C   UNL     1      -7.895  -0.158 -23.550  1.00  0.00     0.212 C 
ATOM      5  C   UNL     1      -8.260  -1.497 -24.197  1.00  0.00     0.109 C 
ATOM      6  C   UNL     1      -9.228  -2.333 -23.341  1.00  0.00     0.215 C 
ENDROOT
BRANCH   2   7
ATOM      7  O   UNL     1      -9.464  -0.206 -20.883  1.00  0.00    -0.390 OA
ATOM      8  H   UNL     1      -9.244   0.690 -20.550  1.00  0.00     0.211 HD
ENDBRANCH   2   7
BRANCH   6   9
ATOM      9  O   UNL     1      -9.743  -3.483 -24.089  1.00  0.00    -0.444 OA
BRANCH   9  10
ATOM     10  C   UNL     1     -10.768  -3.299 -24.958  1.00  0.00     0.331 C 
ATOM     11  O   UNL     1     -11.952  -3.267 -24.665  1.00  0.00    -0.247 OA
BRANCH  10  12
ATOM     12  C   UNL     1     -10.286  -3.131 -26.344  1.00  0.00     0.094 C 
ATOM     13  C   UNL     1     -10.361  -1.984 -27.038  1.00  0.00     0.016 C 
BRANCH  13  14
ATOM     14  C   UNL     1      -9.855  -1.810 -28.408  1.00  0.00    -0.021 A 
ATOM     15  C   UNL     1      -9.417  -2.944 -29.111  1.00  0.00     0.058 A 
ATOM     16  C   UNL     1      -9.736  -0.545 -29.010  1.00  0.00     0.012 A 
ATOM     17  C   UNL     1      -8.897  -2.805 -30.396  1.00  0.00     0.157 A 
ATOM     18  C   UNL     1      -9.214  -0.415 -30.301  1.00  0.00     0.051 A 
ATOM     19  C   UNL     1      -8.800  -1.547 -30.982  1.00  0.00     0.157 A 
BRANCH  17  20
ATOM     20  O   UNL     1      -8.463  -3.879 -31.122  1.00  0.00    -0.504 OA
ATOM     21  H   UNL     1      -8.330  -3.597 -32.043  1.00  0.00     0.293 HD
ENDBRANCH  17  20
BRANCH  19  22
ATOM     22  O   UNL     1      -8.287  -1.419 -32.241  1.00  0.00    -0.504 OA
ATOM     23  H   UNL     1      -7.679  -0.655 -32.185  1.00  0.00     0.293 HD
ENDBRANCH  19  22
ENDBRANCH  13  14
ENDBRANCH  10  12
ENDBRANCH   9  10
ENDBRANCH   6   9
BRANCH   6  24
ATOM     24  C   UNL     1      -8.387  -2.982 -22.225  1.00  0.00     0.348 C 
ATOM     25  O   UNL     1      -8.828  -3.270 -21.120  1.00  0.00    -0.248 OA
BRANCH  24  26
ATOM     26  O   UNL     1      -7.087  -3.171 -22.551  1.00  0.00    -0.478 OA
ATOM     27  H   UNL     1      -6.761  -4.013 -22.170  1.00  0.00     0.296 HD
ENDBRANCH  24  26
ENDBRANCH   6  24
BRANCH   3  28
ATOM     28  O   UNL     1      -9.915   0.983 -24.342  1.00  0.00    -0.387 OA
ATOM     29  H   UNL     1      -9.888   0.261 -24.995  1.00  0.00     0.211 HD
ENDBRANCH   3  28
BRANCH   4  30
ATOM     30  O   UNL     1      -7.103   0.569 -24.515  1.00  0.00    -0.456 OA
BRANCH  30  31
ATOM     31  C   UNL     1      -5.817   0.158 -24.637  1.00  0.00     0.331 C 
ATOM     32  O   UNL     1      -5.049  -0.077 -23.717  1.00  0.00    -0.247 OA
BRANCH  31  33
ATOM     33  C   UNL     1      -5.417  -0.016 -26.048  1.00  0.00     0.094 C 
ATOM     34  C   UNL     1      -4.175   0.176 -26.518  1.00  0.00     0.016 C 
BRANCH  34  35
ATOM     35  C   UNL     1      -3.811  -0.015 -27.929  1.00  0.00    -0.021 A 
ATOM     36  C   UNL     1      -4.818  -0.347 -28.849  1.00  0.00     0.058 A 
ATOM     37  C   UNL     1      -2.480   0.074 -28.371  1.00  0.00     0.012 A 
ATOM     38  C   UNL     1      -4.488  -0.556 -30.184  1.00  0.00     0.157 A 
ATOM     39  C   UNL     1      -2.158  -0.139 -29.714  1.00  0.00     0.051 A 
ATOM     40  C   UNL     1      -3.167  -0.451 -30.610  1.00  0.00     0.157 A 
BRANCH  38  41
ATOM     41  O   UNL     1      -5.433  -0.870 -31.123  1.00  0.00    -0.504 OA
ATOM     42  H   UNL     1      -5.329  -1.809 -31.355  1.00  0.00     0.293 HD
ENDBRANCH  38  41
BRANCH  40  43
ATOM     43  O   UNL     1      -2.853  -0.659 -31.922  1.00  0.00    -0.504 OA
ATOM     44  H   UNL     1      -2.675   0.235 -32.276  1.00  0.00     0.293 HD
ENDBRANCH  40  43
ENDBRANCH  34  35
ENDBRANCH  31  33
ENDBRANCH  30  31
ENDBRANCH   4  30
TORSDOF 16
ENDMDL
MODEL 8
REMARK VINA RESULT:      -9.2      3.691      6.410
REMARK SMILES O=C(/C=C/c1ccc(O)c(O)c1)O[C@@H]1C[C@@](OC(=O)/C=C/c2ccc(O)c(O)c2)(C(=O)O)C[C@@H](O)[C@@H]1O
REMARK SMILES IDX 33 1 34 2 36 3 14 4 15 5 16 6 35 7 17 9 18 10 19 11 20 12
REMARK SMILES IDX 21 13 22 14 29 15 23 16 27 17 24 18 25 19 28 20 26 22 30 24
REMARK SMILES IDX 31 25 32 26 37 28 13 30 2 31 1 32 3 33 4 34 5 35 12 36 6 37
REMARK SMILES IDX 10 38 7 39 8 40 11 41 9 43
REMARK H PARENT 35 8 28 21 26 23 32 27 37 29 11 42 9 44
ROOT
ATOM      1  C   UNL     1      -3.768  -1.267 -29.541  1.00  0.00     0.096 C 
ATOM      2  C   UNL     1      -3.124  -0.811 -28.226  1.00  0.00     0.151 C 
ATOM      3  C   UNL     1      -4.151  -0.563 -27.108  1.00  0.00     0.184 C 
ATOM      4  C   UNL     1      -5.248   0.419 -27.564  1.00  0.00     0.212 C 
ATOM      5  C   UNL     1      -5.991  -0.118 -28.791  1.00  0.00     0.109 C 
ATOM      6  C   UNL     1      -5.049  -0.502 -29.945  1.00  0.00     0.215 C 
ENDROOT
BRANCH   2   7
ATOM      7  O   UNL     1      -2.279   0.316 -28.433  1.00  0.00    -0.390 OA
ATOM      8  H   UNL     1      -2.522   1.060 -27.843  1.00  0.00     0.211 HD
ENDBRANCH   2   7
BRANCH   6   9
ATOM      9  O   UNL     1      -5.763  -1.231 -30.995  1.00  0.00    -0.444 OA
BRANCH   9  10
ATOM     10  C   UNL     1      -7.116  -1.146 -31.054  1.00  0.00     0.331 C 
ATOM     11  O   UNL     1      -7.750  -0.253 -31.591  1.00  0.00    -0.247 OA
BRANCH  10  12
ATOM     12  C   UNL     1      -7.765  -2.289 -30.381  1.00  0.00     0.094 C 
ATOM     13  C   UNL     1      -9.094  -2.447 -30.271  1.00  0.00     0.016 C 
BRANCH  13  14
ATOM     14  C   UNL     1      -9.741  -3.601 -29.626  1.00  0.00    -0.021 A 
ATOM     15  C   UNL     1      -9.624  -3.743 -28.233  1.00  0.00     0.058 A 
ATOM     16  C   UNL     1     -10.414  -4.592 -30.360  1.00  0.00     0.012 A 
ATOM     17  C   UNL     1     -10.194  -4.844 -27.600  1.00  0.00     0.157 A 
ATOM     18  C   UNL     1     -10.983  -5.695 -29.715  1.00  0.00     0.051 A 
ATOM     19  C   UNL     1     -10.868  -5.810 -28.340  1.00  0.00     0.157 A 
BRANCH  17  20
ATOM     20  O   UNL     1     -10.112  -5.026 -26.247  1.00  0.00    -0.504 OA
ATOM     21  H   UNL     1      -9.184  -5.198 -26.013  1.00  0.00     0.293 HD
ENDBRANCH  17  20
BRANCH  19  22
ATOM     22  O   UNL     1     -11.421  -6.889 -27.712  1.00  0.00    -0.504 OA
ATOM     23  H   UNL     1     -11.217  -7.647 -28.294  1.00  0.00     0.293 HD
ENDBRANCH  19  22
ENDBRANCH  13  14
ENDBRANCH  10  12
ENDBRANCH   9  10
ENDBRANCH   6   9
BRANCH   6  24
ATOM     24  C   UNL     1      -4.637   0.811 -30.638  1.00  0.00     0.348 C 
ATOM     25  O   UNL     1      -5.307   1.834 -30.610  1.00  0.00    -0.248 OA
BRANCH  24  26
ATOM     26  O   UNL     1      -3.477   0.731 -31.330  1.00  0.00    -0.478 OA
ATOM     27  H   UNL     1      -2.728   0.572 -30.719  1.00  0.00     0.296 HD
ENDBRANCH  24  26
ENDBRANCH   6  24
BRANCH   3  28
ATOM     28  O   UNL     1      -4.728  -1.807 -26.679  1.00  0.00    -0.387 OA
ATOM     29  H   UNL     1      -5.276  -2.195 -27.384  1.00  0.00     0.211 HD
ENDBRANCH   3  28
BRANCH   4  30
ATOM     30  O   UNL     1      -6.235   0.604 -26.526  1.00  0.00    -0.456 OA
BRANCH  30  31
ATOM     31  C   UNL     1      -7.339   1.301 -26.893  1.00  0.00     0.331 C 
ATOM     32  O   UNL     1      -7.352   2.436 -27.345  1.00  0.00    -0.247 OA
BRANCH  31  33
ATOM     33  C   UNL     1      -8.578   0.519 -26.716  1.00  0.00     0.094 C 
ATOM     34  C   UNL     1      -8.812  -0.317 -25.693  1.00  0.00     0.016 C 
BRANCH  34  35
ATOM     35  C   UNL     1     -10.063  -1.074 -25.543  1.00  0.00    -0.021 A 
ATOM     36  C   UNL     1     -10.228  -1.891 -24.413  1.00  0.00     0.058 A 
ATOM     37  C   UNL     1     -11.071  -1.044 -26.522  1.00  0.00     0.012 A 
ATOM     38  C   UNL     1     -11.396  -2.634 -24.266  1.00  0.00     0.157 A 
ATOM     39  C   UNL     1     -12.239  -1.796 -26.367  1.00  0.00     0.051 A 
ATOM     40  C   UNL     1     -12.391  -2.584 -25.238  1.00  0.00     0.157 A 
BRANCH  38  41
ATOM     41  O   UNL     1     -11.611  -3.436 -23.179  1.00  0.00    -0.504 OA
ATOM     42  H   UNL     1     -11.367  -4.346 -23.420  1.00  0.00     0.293 HD
ENDBRANCH  38  41
BRANCH  40  43
ATOM     43  O   UNL     1     -13.532  -3.318 -25.086  1.00  0.00    -0.504 OA
ATOM     44  H   UNL     1     -13.754  -3.617 -25.990  1.00  0.00     0.293 HD
ENDBRANCH  40  43
ENDBRANCH  34  35
ENDBRANCH  31  33
ENDBRANCH  30  31
ENDBRANCH   4  30
TORSDOF 16
ENDMDL
MODEL 9
REMARK VINA RESULT:      -9.2      2.905      8.093
REMARK SMILES O=C(/C=C/c1ccc(O)c(O)c1)O[C@@H]1C[C@@](OC(=O)/C=C/c2ccc(O)c(O)c2)(C(=O)O)C[C@@H](O)[C@@H]1O
REMARK SMILES IDX 33 1 34 2 36 3 14 4 15 5 16 6 35 7 17 9 18 10 19 11 20 12
REMARK SMILES IDX 21 13 22 14 29 15 23 16 27 17 24 18 25 19 28 20 26 22 30 24
REMARK SMILES IDX 31 25 32 26 37 28 13 30 2 31 1 32 3 33 4 34 5 35 12 36 6 37
REMARK SMILES IDX 10 38 7 39 8 40 11 41 9 43
REMARK H PARENT 35 8 28 21 26 23 32 27 37 29 11 42 9 44
ROOT
ATOM      1  C   UNL     1      -8.704  -0.958 -21.656  1.00  0.00     0.096 C 
ATOM      2  C   UNL     1      -9.594  -1.978 -20.935  1.00  0.00     0.151 C 
ATOM      3  C   UNL     1      -9.778  -3.283 -21.729  1.00  0.00     0.184 C 
ATOM      4  C   UNL     1     -10.290  -3.002 -23.155  1.00  0.00     0.212 C 
ATOM      5  C   UNL     1      -9.315  -2.105 -23.923  1.00  0.00     0.109 C 
ATOM      6  C   UNL     1      -8.973  -0.807 -23.170  1.00  0.00     0.215 C 
ENDROOT
BRANCH   2   7
ATOM      7  O   UNL     1     -10.841  -1.399 -20.566  1.00  0.00    -0.390 OA
ATOM      8  H   UNL     1     -11.182  -0.801 -21.265  1.00  0.00     0.211 HD
ENDBRANCH   2   7
BRANCH   6   9
ATOM      9  O   UNL     1      -7.864  -0.097 -23.812  1.00  0.00    -0.444 OA
BRANCH   9  10
ATOM     10  C   UNL     1      -6.693  -0.751 -24.019  1.00  0.00     0.331 C 
ATOM     11  O   UNL     1      -6.057  -1.357 -23.172  1.00  0.00    -0.247 OA
BRANCH  10  12
ATOM     12  C   UNL     1      -6.255  -0.653 -25.426  1.00  0.00     0.094 C 
ATOM     13  C   UNL     1      -5.282  -1.404 -25.969  1.00  0.00     0.016 C 
BRANCH  13  14
ATOM     14  C   UNL     1      -4.866  -1.326 -27.378  1.00  0.00    -0.021 A 
ATOM     15  C   UNL     1      -3.680  -0.640 -27.691  1.00  0.00     0.058 A 
ATOM     16  C   UNL     1      -5.642  -1.859 -28.422  1.00  0.00     0.012 A 
ATOM     17  C   UNL     1      -3.281  -0.518 -29.019  1.00  0.00     0.157 A 
ATOM     18  C   UNL     1      -5.233  -1.732 -29.752  1.00  0.00     0.051 A 
ATOM     19  C   UNL     1      -4.055  -1.063 -30.038  1.00  0.00     0.157 A 
BRANCH  17  20
ATOM     20  O   UNL     1      -2.134   0.136 -29.374  1.00  0.00    -0.504 OA
ATOM     21  H   UNL     1      -2.302   1.094 -29.350  1.00  0.00     0.293 HD
ENDBRANCH  17  20
BRANCH  19  22
ATOM     22  O   UNL     1      -3.658  -0.937 -31.338  1.00  0.00    -0.504 OA
ATOM     23  H   UNL     1      -3.490  -1.852 -31.638  1.00  0.00     0.293 HD
ENDBRANCH  19  22
ENDBRANCH  13  14
ENDBRANCH  10  12
ENDBRANCH   9  10
ENDBRANCH   6   9
BRANCH   6  24
ATOM     24  C   UNL     1     -10.167   0.147 -23.364  1.00  0.00     0.348 C 
ATOM     25  O   UNL     1     -10.668   0.802 -22.460  1.00  0.00    -0.248 OA
BRANCH  24  26
ATOM     26  O   UNL     1     -10.658   0.170 -24.625  1.00  0.00    -0.478 OA
ATOM     27  H   UNL     1      -9.924   0.212 -25.273  1.00  0.00     0.296 HD
ENDBRANCH  24  26
ENDBRANCH   6  24
BRANCH   3  28
ATOM     28  O   UNL     1      -8.545  -4.019 -21.765  1.00  0.00    -0.387 OA
ATOM     29  H   UNL     1      -8.707  -4.971 -21.643  1.00  0.00     0.211 HD
ENDBRANCH   3  28
BRANCH   4  30
ATOM     30  O   UNL     1     -10.409  -4.230 -23.908  1.00  0.00    -0.456 OA
BRANCH  30  31
ATOM     31  C   UNL     1     -11.366  -4.230 -24.868  1.00  0.00     0.331 C 
ATOM     32  O   UNL     1     -12.518  -4.612 -24.732  1.00  0.00    -0.247 OA
BRANCH  31  33
ATOM     33  C   UNL     1     -10.876  -3.674 -26.145  1.00  0.00     0.094 C 
ATOM     34  C   UNL     1     -10.128  -4.347 -27.032  1.00  0.00     0.016 C 
BRANCH  34  35
ATOM     35  C   UNL     1      -9.664  -3.764 -28.300  1.00  0.00    -0.021 A 
ATOM     36  C   UNL     1      -9.783  -2.379 -28.491  1.00  0.00     0.058 A 
ATOM     37  C   UNL     1      -9.155  -4.560 -29.341  1.00  0.00     0.012 A 
ATOM     38  C   UNL     1      -9.371  -1.812 -29.693  1.00  0.00     0.157 A 
ATOM     39  C   UNL     1      -8.746  -3.982 -30.546  1.00  0.00     0.051 A 
ATOM     40  C   UNL     1      -8.858  -2.611 -30.710  1.00  0.00     0.157 A 
BRANCH  38  41
ATOM     41  O   UNL     1      -9.455  -0.467 -29.926  1.00  0.00    -0.504 OA
ATOM     42  H   UNL     1      -8.552  -0.117 -30.016  1.00  0.00     0.293 HD
ENDBRANCH  38  41
BRANCH  40  43
ATOM     43  O   UNL     1      -8.458  -2.046 -31.888  1.00  0.00    -0.504 OA
ATOM     44  H   UNL     1      -9.283  -1.941 -32.401  1.00  0.00     0.293 HD
ENDBRANCH  40  43
ENDBRANCH  34  35
ENDBRANCH  31  33
ENDBRANCH  30  31
ENDBRANCH   4  30
TORSDOF 16
ENDMDL
MODEL 10
REMARK VINA RESULT:      -9.2      2.640      8.146
REMARK SMILES O=C(/C=C/c1ccc(O)c(O)c1)O[C@@H]1C[C@@](OC(=O)/C=C/c2ccc(O)c(O)c2)(C(=O)O)C[C@@H](O)[C@@H]1O
REMARK SMILES IDX 33 1 34 2 36 3 14 4 15 5 16 6 35 7 17 9 18 10 19 11 20 12
REMARK SMILES IDX 21 13 22 14 29 15 23 16 27 17 24 18 25 19 28 20 26 22 30 24
REMARK SMILES IDX 31 25 32 26 37 28 13 30 2 31 1 32 3 33 4 34 5 35 12 36 6 37
REMARK SMILES IDX 10 38 7 39 8 40 11 41 9 43
REMARK H PARENT 35 8 28 21 26 23 32 27 37 29 11 42 9 44
ROOT
ATOM      1  C   UNL     1     -11.073  -2.408 -26.897  1.00  0.00     0.096 C 
ATOM      2  C   UNL     1     -10.873  -2.837 -25.439  1.00  0.00     0.151 C 
ATOM      3  C   UNL     1     -10.047  -1.828 -24.623  1.00  0.00     0.184 C 
ATOM      4  C   UNL     1      -8.700  -1.525 -25.307  1.00  0.00     0.212 C 
ATOM      5  C   UNL     1      -8.912  -0.951 -26.711  1.00  0.00     0.109 C 
ATOM      6  C   UNL     1      -9.818  -1.831 -27.590  1.00  0.00     0.215 C 
ENDROOT
BRANCH   2   7
ATOM      7  O   UNL     1     -10.335  -4.152 -25.361  1.00  0.00    -0.390 OA
ATOM      8  H   UNL     1     -10.472  -4.647 -26.196  1.00  0.00     0.211 HD
ENDBRANCH   2   7
BRANCH   6   9
ATOM      9  O   UNL     1     -10.194  -1.140 -28.825  1.00  0.00    -0.444 OA
BRANCH   9  10
ATOM     10  C   UNL     1      -9.537  -1.438 -29.974  1.00  0.00     0.331 C 
ATOM     11  O   UNL     1      -9.721  -2.429 -30.662  1.00  0.00    -0.247 OA
BRANCH  10  12
ATOM     12  C   UNL     1      -8.544  -0.402 -30.320  1.00  0.00     0.094 C 
ATOM     13  C   UNL     1      -7.776   0.240 -29.424  1.00  0.00     0.016 C 
BRANCH  13  14
ATOM     14  C   UNL     1      -6.766   1.252 -29.771  1.00  0.00    -0.021 A 
ATOM     15  C   UNL     1      -5.919   1.007 -30.865  1.00  0.00     0.058 A 
ATOM     16  C   UNL     1      -6.580   2.420 -29.011  1.00  0.00     0.012 A 
ATOM     17  C   UNL     1      -4.930   1.929 -31.194  1.00  0.00     0.157 A 
ATOM     18  C   UNL     1      -5.583   3.340 -29.350  1.00  0.00     0.051 A 
ATOM     19  C   UNL     1      -4.768   3.086 -30.440  1.00  0.00     0.157 A 
BRANCH  17  20
ATOM     20  O   UNL     1      -4.084   1.738 -32.252  1.00  0.00    -0.504 OA
ATOM     21  H   UNL     1      -4.272   2.414 -32.926  1.00  0.00     0.293 HD
ENDBRANCH  17  20
BRANCH  19  22
ATOM     22  O   UNL     1      -3.793   3.984 -30.767  1.00  0.00    -0.504 OA
ATOM     23  H   UNL     1      -4.237   4.854 -30.742  1.00  0.00     0.293 HD
ENDBRANCH  19  22
ENDBRANCH  13  14
ENDBRANCH  10  12
ENDBRANCH   9  10
ENDBRANCH   6   9
BRANCH   6  24
ATOM     24  C   UNL     1      -8.950  -3.004 -28.086  1.00  0.00     0.348 C 
ATOM     25  O   UNL     1      -7.730  -2.961 -28.167  1.00  0.00    -0.248 OA
BRANCH  24  26
ATOM     26  O   UNL     1      -9.658  -4.089 -28.476  1.00  0.00    -0.478 OA
ATOM     27  H   UNL     1     -10.417  -4.233 -27.873  1.00  0.00     0.296 HD
ENDBRANCH  24  26
ENDBRANCH   6  24
BRANCH   3  28
ATOM     28  O   UNL     1     -10.799  -0.620 -24.421  1.00  0.00    -0.387 OA
ATOM     29  H   UNL     1     -11.451  -0.734 -23.707  1.00  0.00     0.211 HD
ENDBRANCH   3  28
BRANCH   4  30
ATOM     30  O   UNL     1      -7.955  -0.538 -24.560  1.00  0.00    -0.456 OA
BRANCH  30  31
ATOM     31  C   UNL     1      -6.652  -0.839 -24.340  1.00  0.00     0.331 C 
ATOM     32  O   UNL     1      -6.200  -1.384 -23.345  1.00  0.00    -0.247 OA
BRANCH  31  33
ATOM     33  C   UNL     1      -5.791  -0.456 -25.477  1.00  0.00     0.094 C 
ATOM     34  C   UNL     1      -5.155  -1.324 -26.278  1.00  0.00     0.016 C 
BRANCH  34  35
ATOM     35  C   UNL     1      -4.312  -0.908 -27.408  1.00  0.00    -0.021 A 
ATOM     36  C   UNL     1      -4.266  -1.719 -28.552  1.00  0.00     0.058 A 
ATOM     37  C   UNL     1      -3.514   0.248 -27.353  1.00  0.00     0.012 A 
ATOM     38  C   UNL     1      -3.455  -1.353 -29.623  1.00  0.00     0.157 A 
ATOM     39  C   UNL     1      -2.702   0.607 -28.432  1.00  0.00     0.051 A 
ATOM     40  C   UNL     1      -2.681  -0.198 -29.559  1.00  0.00     0.157 A 
BRANCH  38  41
ATOM     41  O   UNL     1      -3.383  -2.102 -30.765  1.00  0.00    -0.504 OA
ATOM     42  H   UNL     1      -2.478  -2.453 -30.841  1.00  0.00     0.293 HD
ENDBRANCH  38  41
BRANCH  40  43
ATOM     43  O   UNL     1      -1.887   0.152 -30.614  1.00  0.00    -0.504 OA
ATOM     44  H   UNL     1      -0.976  -0.000 -30.295  1.00  0.00     0.293 HD
ENDBRANCH  40  43
ENDBRANCH  34  35
ENDBRANCH  31  33
ENDBRANCH  30  31
ENDBRANCH   4  30
TORSDOF 16
ENDMDL
