MODEL 1
REMARK VINA RESULT:      -8.3      0.000      0.000
REMARK SMILES O=C(/C=C/c1ccc(O)c(O)c1)O[C@@H]1C[C@](O)(C(=O)O)C[C@@H](O)[C@H]1O
REMARK SMILES IDX 2 1 1 2 13 3 14 4 21 5 22 6 16 7 24 8 15 9 23 10 17 12 18 14
REMARK SMILES IDX 19 15 20 16 25 18 3 20 4 21 5 22 12 23 6 24 10 25 7 26 8 27
REMARK SMILES IDX 11 28 9 30
REMARK H PARENT 23 11 17 13 20 17 25 19 11 29 9 31
ROOT
ATOM      1  C   UNL     1      -4.897   3.137 -30.367  1.00  0.00     0.331 C 
ATOM      2  O   UNL     1      -4.692   4.307 -30.660  1.00  0.00    -0.247 OA
ENDROOT
BRANCH   1   3
ATOM      3  O   UNL     1      -4.005   2.298 -29.790  1.00  0.00    -0.456 OA
BRANCH   3   4
ATOM      4  C   UNL     1      -4.483   0.962 -29.526  1.00  0.00     0.211 C 
ATOM      5  C   UNL     1      -3.987  -1.683 -28.258  1.00  0.00     0.082 C 
ATOM      6  C   UNL     1      -3.830  -1.490 -29.766  1.00  0.00     0.150 C 
ATOM      7  C   UNL     1      -4.975  -0.676 -27.654  1.00  0.00     0.167 C 
ATOM      8  C   UNL     1      -3.487  -0.038 -30.140  1.00  0.00     0.184 C 
ATOM      9  C   UNL     1      -4.593   0.760 -28.011  1.00  0.00     0.095 C 
BRANCH   6  10
ATOM     10  O   UNL     1      -5.031  -1.869 -30.458  1.00  0.00    -0.390 OA
ATOM     11  H   UNL     1      -5.378  -2.688 -30.048  1.00  0.00     0.211 HD
ENDBRANCH   6  10
BRANCH   7  12
ATOM     12  O   UNL     1      -6.290  -0.969 -28.178  1.00  0.00    -0.378 OA
ATOM     13  H   UNL     1      -6.845  -0.172 -28.038  1.00  0.00     0.212 HD
ENDBRANCH   7  12
BRANCH   7  14
ATOM     14  C   UNL     1      -5.006  -0.871 -26.130  1.00  0.00     0.335 C 
ATOM     15  O   UNL     1      -5.407  -1.871 -25.558  1.00  0.00    -0.249 OA
BRANCH  14  16
ATOM     16  O   UNL     1      -4.547   0.226 -25.476  1.00  0.00    -0.479 OA
ATOM     17  H   UNL     1      -5.301   0.699 -25.055  1.00  0.00     0.296 HD
ENDBRANCH  14  16
ENDBRANCH   7  14
BRANCH   8  18
ATOM     18  O   UNL     1      -3.503   0.083 -31.569  1.00  0.00    -0.387 OA
ATOM     19  H   UNL     1      -4.445   0.189 -31.818  1.00  0.00     0.211 HD
ENDBRANCH   8  18
ENDBRANCH   3   4
ENDBRANCH   1   3
BRANCH   1  20
ATOM     20  C   UNL     1      -6.179   2.466 -30.662  1.00  0.00     0.094 C 
ATOM     21  C   UNL     1      -6.586   2.127 -31.895  1.00  0.00     0.016 C 
BRANCH  21  22
ATOM     22  C   UNL     1      -7.861   1.450 -32.165  1.00  0.00    -0.021 A 
ATOM     23  C   UNL     1      -8.788   1.179 -31.146  1.00  0.00     0.058 A 
ATOM     24  C   UNL     1      -8.180   1.117 -33.491  1.00  0.00     0.012 A 
ATOM     25  C   UNL     1      -9.995   0.564 -31.463  1.00  0.00     0.157 A 
ATOM     26  C   UNL     1      -9.394   0.498 -33.800  1.00  0.00     0.051 A 
ATOM     27  C   UNL     1     -10.291   0.225 -32.779  1.00  0.00     0.157 A 
BRANCH  25  28
ATOM     28  O   UNL     1     -10.933   0.277 -30.509  1.00  0.00    -0.504 OA
ATOM     29  H   UNL     1     -10.779  -0.629 -30.192  1.00  0.00     0.293 HD
ENDBRANCH  25  28
BRANCH  27  30
ATOM     30  O   UNL     1     -11.479  -0.377 -33.080  1.00  0.00    -0.504 OA
ATOM     31  H   UNL     1     -11.893   0.214 -33.740  1.00  0.00     0.293 HD
ENDBRANCH  27  30
ENDBRANCH  21  22
ENDBRANCH   1  20
TORSDOF 11
ENDMDL
MODEL 2
REMARK VINA RESULT:      -8.1      1.715      4.223
REMARK SMILES O=C(/C=C/c1ccc(O)c(O)c1)O[C@@H]1C[C@](O)(C(=O)O)C[C@@H](O)[C@H]1O
REMARK SMILES IDX 2 1 1 2 13 3 14 4 21 5 22 6 16 7 24 8 15 9 23 10 17 12 18 14
REMARK SMILES IDX 19 15 20 16 25 18 3 20 4 21 5 22 12 23 6 24 10 25 7 26 8 27
REMARK SMILES IDX 11 28 9 30
REMARK H PARENT 23 11 17 13 20 17 25 19 11 29 9 31
ROOT
ATOM      1  C   UNL     1      -7.132  -1.121 -26.995  1.00  0.00     0.331 C 
ATOM      2  O   UNL     1      -7.724  -1.409 -25.964  1.00  0.00    -0.247 OA
ENDROOT
BRANCH   1   3
ATOM      3  O   UNL     1      -5.823  -1.355 -27.247  1.00  0.00    -0.456 OA
BRANCH   3   4
ATOM      4  C   UNL     1      -5.098  -0.265 -27.854  1.00  0.00     0.211 C 
ATOM      5  C   UNL     1      -2.578   0.688 -29.116  1.00  0.00     0.082 C 
ATOM      6  C   UNL     1      -2.921   1.050 -27.671  1.00  0.00     0.150 C 
ATOM      7  C   UNL     1      -3.836   0.408 -29.948  1.00  0.00     0.167 C 
ATOM      8  C   UNL     1      -3.840   0.010 -27.008  1.00  0.00     0.184 C 
ATOM      9  C   UNL     1      -4.715  -0.652 -29.286  1.00  0.00     0.095 C 
BRANCH   6  10
ATOM     10  O   UNL     1      -3.559   2.335 -27.603  1.00  0.00    -0.390 OA
ATOM     11  H   UNL     1      -3.297   2.853 -28.392  1.00  0.00     0.211 HD
ENDBRANCH   6  10
BRANCH   7  12
ATOM     12  O   UNL     1      -4.578   1.643 -30.068  1.00  0.00    -0.378 OA
ATOM     13  H   UNL     1      -4.528   1.924 -31.007  1.00  0.00     0.212 HD
ENDBRANCH   7  12
BRANCH   7  14
ATOM     14  C   UNL     1      -3.406  -0.038 -31.355  1.00  0.00     0.335 C 
ATOM     15  O   UNL     1      -3.087  -1.173 -31.665  1.00  0.00    -0.249 OA
BRANCH  14  16
ATOM     16  O   UNL     1      -3.401   1.001 -32.228  1.00  0.00    -0.479 OA
ATOM     17  H   UNL     1      -4.293   1.415 -32.254  1.00  0.00     0.296 HD
ENDBRANCH  14  16
ENDBRANCH   7  14
BRANCH   8  18
ATOM     18  O   UNL     1      -4.227   0.498 -25.716  1.00  0.00    -0.387 OA
ATOM     19  H   UNL     1      -5.076   0.969 -25.851  1.00  0.00     0.211 HD
ENDBRANCH   8  18
ENDBRANCH   3   4
ENDBRANCH   1   3
BRANCH   1  20
ATOM     20  C   UNL     1      -7.795  -0.418 -28.112  1.00  0.00     0.094 C 
ATOM     21  C   UNL     1      -8.341  -1.035 -29.172  1.00  0.00     0.016 C 
BRANCH  21  22
ATOM     22  C   UNL     1      -9.007  -0.318 -30.267  1.00  0.00    -0.021 A 
ATOM     23  C   UNL     1     -10.094  -0.872 -30.964  1.00  0.00     0.058 A 
ATOM     24  C   UNL     1      -8.577   0.980 -30.582  1.00  0.00     0.012 A 
ATOM     25  C   UNL     1     -10.710  -0.135 -31.971  1.00  0.00     0.157 A 
ATOM     26  C   UNL     1      -9.201   1.712 -31.597  1.00  0.00     0.051 A 
ATOM     27  C   UNL     1     -10.262   1.144 -32.284  1.00  0.00     0.157 A 
BRANCH  25  28
ATOM     28  O   UNL     1     -11.771  -0.627 -32.681  1.00  0.00    -0.504 OA
ATOM     29  H   UNL     1     -12.169  -1.353 -32.172  1.00  0.00     0.293 HD
ENDBRANCH  25  28
BRANCH  27  30
ATOM     30  O   UNL     1     -10.874   1.859 -33.273  1.00  0.00    -0.504 OA
ATOM     31  H   UNL     1     -11.818   1.613 -33.206  1.00  0.00     0.293 HD
ENDBRANCH  27  30
ENDBRANCH  21  22
ENDBRANCH   1  20
TORSDOF 11
ENDMDL
MODEL 3
REMARK VINA RESULT:      -7.8      4.125      6.562
REMARK SMILES O=C(/C=C/c1ccc(O)c(O)c1)O[C@@H]1C[C@](O)(C(=O)O)C[C@@H](O)[C@H]1O
REMARK SMILES IDX 2 1 1 2 13 3 14 4 21 5 22 6 16 7 24 8 15 9 23 10 17 12 18 14
REMARK SMILES IDX 19 15 20 16 25 18 3 20 4 21 5 22 12 23 6 24 10 25 7 26 8 27
REMARK SMILES IDX 11 28 9 30
REMARK H PARENT 23 11 17 13 20 17 25 19 11 29 9 31
ROOT
ATOM      1  C   UNL     1      -6.121  -2.093 -29.646  1.00  0.00     0.331 C 
ATOM      2  O   UNL     1      -5.079  -1.865 -29.046  1.00  0.00    -0.247 OA
ENDROOT
BRANCH   1   3
ATOM      3  O   UNL     1      -6.404  -1.714 -30.914  1.00  0.00    -0.456 OA
BRANCH   3   4
ATOM      4  C   UNL     1      -7.023  -0.418 -31.056  1.00  0.00     0.211 C 
ATOM      5  C   UNL     1      -7.926   1.752 -32.878  1.00  0.00     0.082 C 
ATOM      6  C   UNL     1      -6.640   1.892 -32.064  1.00  0.00     0.150 C 
ATOM      7  C   UNL     1      -8.925   0.799 -32.210  1.00  0.00     0.167 C 
ATOM      8  C   UNL     1      -6.010   0.531 -31.724  1.00  0.00     0.184 C 
ATOM      9  C   UNL     1      -8.285  -0.557 -31.913  1.00  0.00     0.095 C 
BRANCH   6  10
ATOM     10  O   UNL     1      -6.885   2.603 -30.839  1.00  0.00    -0.390 OA
ATOM     11  H   UNL     1      -6.490   2.092 -30.102  1.00  0.00     0.211 HD
ENDBRANCH   6  10
BRANCH   7  12
ATOM     12  O   UNL     1      -9.364   1.405 -30.974  1.00  0.00    -0.378 OA
ATOM     13  H   UNL     1      -8.716   1.158 -30.280  1.00  0.00     0.212 HD
ENDBRANCH   7  12
BRANCH   7  14
ATOM     14  C   UNL     1     -10.144   0.639 -33.131  1.00  0.00     0.335 C 
ATOM     15  O   UNL     1     -10.336  -0.300 -33.886  1.00  0.00    -0.249 OA
BRANCH  14  16
ATOM     16  O   UNL     1     -10.993   1.693 -33.024  1.00  0.00    -0.479 OA
ATOM     17  H   UNL     1     -10.502   2.480 -32.694  1.00  0.00     0.296 HD
ENDBRANCH  14  16
ENDBRANCH   7  14
BRANCH   8  18
ATOM     18  O   UNL     1      -4.900   0.748 -30.841  1.00  0.00    -0.387 OA
ATOM     19  H   UNL     1      -5.236   1.328 -30.127  1.00  0.00     0.211 HD
ENDBRANCH   8  18
ENDBRANCH   3   4
ENDBRANCH   1   3
BRANCH   1  20
ATOM     20  C   UNL     1      -7.253  -2.801 -29.013  1.00  0.00     0.094 C 
ATOM     21  C   UNL     1      -8.099  -3.609 -29.671  1.00  0.00     0.016 C 
BRANCH  21  22
ATOM     22  C   UNL     1      -9.212  -4.313 -29.020  1.00  0.00    -0.021 A 
ATOM     23  C   UNL     1      -9.684  -3.941 -27.750  1.00  0.00     0.058 A 
ATOM     24  C   UNL     1      -9.854  -5.348 -29.717  1.00  0.00     0.012 A 
ATOM     25  C   UNL     1     -10.764  -4.620 -27.195  1.00  0.00     0.157 A 
ATOM     26  C   UNL     1     -10.937  -6.027 -29.149  1.00  0.00     0.051 A 
ATOM     27  C   UNL     1     -11.380  -5.656 -27.889  1.00  0.00     0.157 A 
BRANCH  25  28
ATOM     28  O   UNL     1     -11.262  -4.300 -25.962  1.00  0.00    -0.504 OA
ATOM     29  H   UNL     1     -10.763  -3.539 -25.618  1.00  0.00     0.293 HD
ENDBRANCH  25  28
BRANCH  27  30
ATOM     30  O   UNL     1     -12.439  -6.316 -27.336  1.00  0.00    -0.504 OA
ATOM     31  H   UNL     1     -13.183  -6.140 -27.945  1.00  0.00     0.293 HD
ENDBRANCH  27  30
ENDBRANCH  21  22
ENDBRANCH   1  20
TORSDOF 11
ENDMDL
MODEL 4
REMARK VINA RESULT:      -7.8      3.908      4.707
REMARK SMILES O=C(/C=C/c1ccc(O)c(O)c1)O[C@@H]1C[C@](O)(C(=O)O)C[C@@H](O)[C@H]1O
REMARK SMILES IDX 2 1 1 2 13 3 14 4 21 5 22 6 16 7 24 8 15 9 23 10 17 12 18 14
REMARK SMILES IDX 19 15 20 16 25 18 3 20 4 21 5 22 12 23 6 24 10 25 7 26 8 27
REMARK SMILES IDX 11 28 9 30
REMARK H PARENT 23 11 17 13 20 17 25 19 11 29 9 31
ROOT
ATOM      1  C   UNL     1      -7.770  -0.689 -30.930  1.00  0.00     0.331 C 
ATOM      2  O   UNL     1      -7.756  -0.616 -32.152  1.00  0.00    -0.247 OA
ENDROOT
BRANCH   1   3
ATOM      3  O   UNL     1      -7.015   0.052 -30.085  1.00  0.00    -0.456 OA
BRANCH   3   4
ATOM      4  C   UNL     1      -6.008  -0.673 -29.347  1.00  0.00     0.211 C 
ATOM      5  C   UNL     1      -3.772  -0.582 -27.388  1.00  0.00     0.082 C 
ATOM      6  C   UNL     1      -3.501  -0.723 -28.885  1.00  0.00     0.150 C 
ATOM      7  C   UNL     1      -5.154  -1.127 -27.004  1.00  0.00     0.167 C 
ATOM      8  C   UNL     1      -4.626  -0.121 -29.744  1.00  0.00     0.184 C 
ATOM      9  C   UNL     1      -6.257  -0.488 -27.847  1.00  0.00     0.095 C 
BRANCH   6  10
ATOM     10  O   UNL     1      -3.337  -2.104 -29.248  1.00  0.00    -0.390 OA
ATOM     11  H   UNL     1      -2.452  -2.398 -28.951  1.00  0.00     0.211 HD
ENDBRANCH   6  10
BRANCH   7  12
ATOM     12  O   UNL     1      -5.148  -2.556 -27.219  1.00  0.00    -0.378 OA
ATOM     13  H   UNL     1      -5.640  -2.966 -26.476  1.00  0.00     0.212 HD
ENDBRANCH   7  12
BRANCH   7  14
ATOM     14  C   UNL     1      -5.387  -0.864 -25.507  1.00  0.00     0.335 C 
ATOM     15  O   UNL     1      -6.048  -1.570 -24.765  1.00  0.00    -0.249 OA
BRANCH  14  16
ATOM     16  O   UNL     1      -4.781   0.280 -25.101  1.00  0.00    -0.479 OA
ATOM     17  H   UNL     1      -5.406   1.035 -25.190  1.00  0.00     0.296 HD
ENDBRANCH  14  16
ENDBRANCH   7  14
BRANCH   8  18
ATOM     18  O   UNL     1      -4.364  -0.426 -31.122  1.00  0.00    -0.387 OA
ATOM     19  H   UNL     1      -5.242  -0.504 -31.549  1.00  0.00     0.211 HD
ENDBRANCH   8  18
ENDBRANCH   3   4
ENDBRANCH   1   3
BRANCH   1  20
ATOM     20  C   UNL     1      -8.615  -1.663 -30.211  1.00  0.00     0.094 C 
ATOM     21  C   UNL     1      -8.500  -2.995 -30.332  1.00  0.00     0.016 C 
BRANCH  21  22
ATOM     22  C   UNL     1      -9.343  -3.947 -29.598  1.00  0.00    -0.021 A 
ATOM     23  C   UNL     1      -9.355  -3.999 -28.194  1.00  0.00     0.058 A 
ATOM     24  C   UNL     1     -10.201  -4.787 -30.324  1.00  0.00     0.012 A 
ATOM     25  C   UNL     1     -10.198  -4.898 -27.549  1.00  0.00     0.157 A 
ATOM     26  C   UNL     1     -11.044  -5.689 -29.667  1.00  0.00     0.051 A 
ATOM     27  C   UNL     1     -11.031  -5.737 -28.282  1.00  0.00     0.157 A 
BRANCH  25  28
ATOM     28  O   UNL     1     -10.248  -4.990 -26.184  1.00  0.00    -0.504 OA
ATOM     29  H   UNL     1      -9.637  -5.692 -25.903  1.00  0.00     0.293 HD
ENDBRANCH  25  28
BRANCH  27  30
ATOM     30  O   UNL     1     -11.856  -6.614 -27.639  1.00  0.00    -0.504 OA
ATOM     31  H   UNL     1     -11.745  -6.403 -26.690  1.00  0.00     0.293 HD
ENDBRANCH  27  30
ENDBRANCH  21  22
ENDBRANCH   1  20
TORSDOF 11
ENDMDL
MODEL 5
REMARK VINA RESULT:      -7.8      5.538      7.341
REMARK SMILES O=C(/C=C/c1ccc(O)c(O)c1)O[C@@H]1C[C@](O)(C(=O)O)C[C@@H](O)[C@H]1O
REMARK SMILES IDX 2 1 1 2 13 3 14 4 21 5 22 6 16 7 24 8 15 9 23 10 17 12 18 14
REMARK SMILES IDX 19 15 20 16 25 18 3 20 4 21 5 22 12 23 6 24 10 25 7 26 8 27
REMARK SMILES IDX 11 28 9 30
REMARK H PARENT 23 11 17 13 20 17 25 19 11 29 9 31
ROOT
ATOM      1  C   UNL     1      -9.820  -4.910 -29.763  1.00  0.00     0.331 C 
ATOM      2  O   UNL     1     -10.372  -5.805 -30.388  1.00  0.00    -0.247 OA
ENDROOT
BRANCH   1   3
ATOM      3  O   UNL     1      -9.584  -4.905 -28.430  1.00  0.00    -0.456 OA
BRANCH   3   4
ATOM      4  C   UNL     1     -10.743  -4.721 -27.590  1.00  0.00     0.211 C 
ATOM      5  C   UNL     1     -11.889  -4.734 -24.845  1.00  0.00     0.082 C 
ATOM      6  C   UNL     1     -12.142  -5.892 -25.810  1.00  0.00     0.150 C 
ATOM      7  C   UNL     1     -11.604  -3.423 -25.589  1.00  0.00     0.167 C 
ATOM      8  C   UNL     1     -11.021  -6.044 -26.853  1.00  0.00     0.184 C 
ATOM      9  C   UNL     1     -10.465  -3.590 -26.594  1.00  0.00     0.095 C 
BRANCH   6  10
ATOM     10  O   UNL     1     -13.390  -5.720 -26.501  1.00  0.00    -0.390 OA
ATOM     11  H   UNL     1     -13.933  -6.523 -26.364  1.00  0.00     0.211 HD
ENDBRANCH   6  10
BRANCH   7  12
ATOM     12  O   UNL     1     -12.809  -3.034 -26.287  1.00  0.00    -0.378 OA
ATOM     13  H   UNL     1     -13.565  -3.215 -25.689  1.00  0.00     0.212 HD
ENDBRANCH   7  12
BRANCH   7  14
ATOM     14  C   UNL     1     -11.269  -2.335 -24.557  1.00  0.00     0.335 C 
ATOM     15  O   UNL     1     -10.934  -1.193 -24.824  1.00  0.00    -0.249 OA
BRANCH  14  16
ATOM     16  O   UNL     1     -11.368  -2.803 -23.288  1.00  0.00    -0.479 OA
ATOM     17  H   UNL     1     -11.421  -2.047 -22.660  1.00  0.00     0.296 HD
ENDBRANCH  14  16
ENDBRANCH   7  14
BRANCH   8  18
ATOM     18  O   UNL     1     -11.408  -7.050 -27.799  1.00  0.00    -0.387 OA
ATOM     19  H   UNL     1     -11.778  -7.786 -27.270  1.00  0.00     0.211 HD
ENDBRANCH   8  18
ENDBRANCH   3   4
ENDBRANCH   1   3
BRANCH   1  20
ATOM     20  C   UNL     1      -9.367  -3.663 -30.411  1.00  0.00     0.094 C 
ATOM     21  C   UNL     1     -10.190  -2.687 -30.826  1.00  0.00     0.016 C 
BRANCH  21  22
ATOM     22  C   UNL     1      -9.718  -1.448 -31.458  1.00  0.00    -0.021 A 
ATOM     23  C   UNL     1     -10.608  -0.452 -31.892  1.00  0.00     0.058 A 
ATOM     24  C   UNL     1      -8.336  -1.236 -31.577  1.00  0.00     0.012 A 
ATOM     25  C   UNL     1     -10.105   0.718 -32.454  1.00  0.00     0.157 A 
ATOM     26  C   UNL     1      -7.840  -0.059 -32.145  1.00  0.00     0.051 A 
ATOM     27  C   UNL     1      -8.732   0.908 -32.581  1.00  0.00     0.157 A 
BRANCH  25  28
ATOM     28  O   UNL     1     -10.926   1.720 -32.894  1.00  0.00    -0.504 OA
ATOM     29  H   UNL     1     -11.847   1.445 -32.750  1.00  0.00     0.293 HD
ENDBRANCH  25  28
BRANCH  27  30
ATOM     30  O   UNL     1      -8.249   2.059 -33.133  1.00  0.00    -0.504 OA
ATOM     31  H   UNL     1      -8.981   2.389 -33.691  1.00  0.00     0.293 HD
ENDBRANCH  27  30
ENDBRANCH  21  22
ENDBRANCH   1  20
TORSDOF 11
ENDMDL
MODEL 6
REMARK VINA RESULT:      -7.7      2.012      4.481
REMARK SMILES O=C(/C=C/c1ccc(O)c(O)c1)O[C@@H]1C[C@](O)(C(=O)O)C[C@@H](O)[C@H]1O
REMARK SMILES IDX 2 1 1 2 13 3 14 4 21 5 22 6 16 7 24 8 15 9 23 10 17 12 18 14
REMARK SMILES IDX 19 15 20 16 25 18 3 20 4 21 5 22 12 23 6 24 10 25 7 26 8 27
REMARK SMILES IDX 11 28 9 30
REMARK H PARENT 23 11 17 13 20 17 25 19 11 29 9 31
ROOT
ATOM      1  C   UNL     1      -7.646  -3.215 -28.453  1.00  0.00     0.331 C 
ATOM      2  O   UNL     1      -8.396  -4.155 -28.231  1.00  0.00    -0.247 OA
ENDROOT
BRANCH   1   3
ATOM      3  O   UNL     1      -6.369  -3.103 -28.019  1.00  0.00    -0.456 OA
BRANCH   3   4
ATOM      4  C   UNL     1      -5.795  -1.780 -28.097  1.00  0.00     0.211 C 
ATOM      5  C   UNL     1      -3.348  -0.091 -28.026  1.00  0.00     0.082 C 
ATOM      6  C   UNL     1      -4.289  -0.164 -26.824  1.00  0.00     0.150 C 
ATOM      7  C   UNL     1      -4.078  -0.391 -29.342  1.00  0.00     0.167 C 
ATOM      8  C   UNL     1      -5.070  -1.488 -26.770  1.00  0.00     0.184 C 
ATOM      9  C   UNL     1      -4.817  -1.727 -29.275  1.00  0.00     0.095 C 
BRANCH   6  10
ATOM     10  O   UNL     1      -5.230   0.922 -26.844  1.00  0.00    -0.390 OA
ATOM     11  H   UNL     1      -6.031   0.628 -27.326  1.00  0.00     0.211 HD
ENDBRANCH   6  10
BRANCH   7  12
ATOM     12  O   UNL     1      -5.026   0.673 -29.581  1.00  0.00    -0.378 OA
ATOM     13  H   UNL     1      -5.102   1.189 -28.751  1.00  0.00     0.212 HD
ENDBRANCH   7  12
BRANCH   7  14
ATOM     14  C   UNL     1      -3.051  -0.391 -30.485  1.00  0.00     0.335 C 
ATOM     15  O   UNL     1      -3.170  -0.997 -31.537  1.00  0.00    -0.249 OA
BRANCH  14  16
ATOM     16  O   UNL     1      -1.962   0.358 -30.178  1.00  0.00    -0.479 OA
ATOM     17  H   UNL     1      -1.554   0.024 -29.347  1.00  0.00     0.296 HD
ENDBRANCH  14  16
ENDBRANCH   7  14
BRANCH   8  18
ATOM     18  O   UNL     1      -6.028  -1.412 -25.705  1.00  0.00    -0.387 OA
ATOM     19  H   UNL     1      -6.662  -0.711 -25.965  1.00  0.00     0.211 HD
ENDBRANCH   8  18
ENDBRANCH   3   4
ENDBRANCH   1   3
BRANCH   1  20
ATOM     20  C   UNL     1      -8.080  -2.026 -29.215  1.00  0.00     0.094 C 
ATOM     21  C   UNL     1      -8.356  -2.033 -30.528  1.00  0.00     0.016 C 
BRANCH  21  22
ATOM     22  C   UNL     1      -8.798  -0.842 -31.265  1.00  0.00    -0.021 A 
ATOM     23  C   UNL     1      -9.637  -0.933 -32.388  1.00  0.00     0.058 A 
ATOM     24  C   UNL     1      -8.414   0.423 -30.794  1.00  0.00     0.012 A 
ATOM     25  C   UNL     1     -10.052   0.230 -33.029  1.00  0.00     0.157 A 
ATOM     26  C   UNL     1      -8.835   1.586 -31.446  1.00  0.00     0.051 A 
ATOM     27  C   UNL     1      -9.650   1.477 -32.561  1.00  0.00     0.157 A 
BRANCH  25  28
ATOM     28  O   UNL     1     -10.868   0.198 -34.127  1.00  0.00    -0.504 OA
ATOM     29  H   UNL     1     -11.514   0.921 -34.050  1.00  0.00     0.293 HD
ENDBRANCH  25  28
BRANCH  27  30
ATOM     30  O   UNL     1     -10.065   2.612 -33.196  1.00  0.00    -0.504 OA
ATOM     31  H   UNL     1     -11.027   2.649 -33.029  1.00  0.00     0.293 HD
ENDBRANCH  27  30
ENDBRANCH  21  22
ENDBRANCH   1  20
TORSDOF 11
ENDMDL
MODEL 7
REMARK VINA RESULT:      -7.7      4.423      7.847
REMARK SMILES O=C(/C=C/c1ccc(O)c(O)c1)O[C@@H]1C[C@](O)(C(=O)O)C[C@@H](O)[C@H]1O
REMARK SMILES IDX 2 1 1 2 13 3 14 4 21 5 22 6 16 7 24 8 15 9 23 10 17 12 18 14
REMARK SMILES IDX 19 15 20 16 25 18 3 20 4 21 5 22 12 23 6 24 10 25 7 26 8 27
REMARK SMILES IDX 11 28 9 30
REMARK H PARENT 23 11 17 13 20 17 25 19 11 29 9 31
ROOT
ATOM      1  C   UNL     1      -8.108  -1.354 -26.211  1.00  0.00     0.331 C 
ATOM      2  O   UNL     1      -8.025  -1.470 -24.996  1.00  0.00    -0.247 OA
ENDROOT
BRANCH   1   3
ATOM      3  O   UNL     1      -9.193  -1.657 -26.962  1.00  0.00    -0.456 OA
BRANCH   3   4
ATOM      4  C   UNL     1      -9.531  -3.058 -27.035  1.00  0.00     0.211 C 
ATOM      5  C   UNL     1     -11.522  -5.128 -27.811  1.00  0.00     0.082 C 
ATOM      6  C   UNL     1     -11.329  -4.730 -26.348  1.00  0.00     0.150 C 
ATOM      7  C   UNL     1     -10.255  -4.882 -28.641  1.00  0.00     0.167 C 
ATOM      8  C   UNL     1     -10.800  -3.294 -26.195  1.00  0.00     0.184 C 
ATOM      9  C   UNL     1      -9.770  -3.440 -28.500  1.00  0.00     0.095 C 
BRANCH   6  10
ATOM     10  O   UNL     1     -10.418  -5.626 -25.690  1.00  0.00    -0.390 OA
ATOM     11  H   UNL     1      -9.611  -5.124 -25.450  1.00  0.00     0.211 HD
ENDBRANCH   6  10
BRANCH   7  12
ATOM     12  O   UNL     1      -9.229  -5.784 -28.171  1.00  0.00    -0.378 OA
ATOM     13  H   UNL     1      -8.996  -6.377 -28.918  1.00  0.00     0.212 HD
ENDBRANCH   7  12
BRANCH   7  14
ATOM     14  C   UNL     1     -10.558  -5.216 -30.110  1.00  0.00     0.335 C 
ATOM     15  O   UNL     1     -11.244  -6.150 -30.492  1.00  0.00    -0.249 OA
BRANCH  14  16
ATOM     16  O   UNL     1      -9.946  -4.350 -30.956  1.00  0.00    -0.479 OA
ATOM     17  H   UNL     1      -9.939  -3.449 -30.559  1.00  0.00     0.296 HD
ENDBRANCH  14  16
ENDBRANCH   7  14
BRANCH   8  18
ATOM     18  O   UNL     1     -10.510  -3.057 -24.810  1.00  0.00    -0.387 OA
ATOM     19  H   UNL     1      -9.941  -3.802 -24.525  1.00  0.00     0.211 HD
ENDBRANCH   8  18
ENDBRANCH   3   4
ENDBRANCH   1   3
BRANCH   1  20
ATOM     20  C   UNL     1      -6.974  -0.892 -27.036  1.00  0.00     0.094 C 
ATOM     21  C   UNL     1      -5.738  -1.413 -26.977  1.00  0.00     0.016 C 
BRANCH  21  22
ATOM     22  C   UNL     1      -4.626  -0.947 -27.815  1.00  0.00    -0.021 A 
ATOM     23  C   UNL     1      -3.614  -0.114 -27.309  1.00  0.00     0.058 A 
ATOM     24  C   UNL     1      -4.547  -1.396 -29.143  1.00  0.00     0.012 A 
ATOM     25  C   UNL     1      -2.565   0.271 -28.139  1.00  0.00     0.157 A 
ATOM     26  C   UNL     1      -3.491  -1.002 -29.969  1.00  0.00     0.051 A 
ATOM     27  C   UNL     1      -2.509  -0.169 -29.457  1.00  0.00     0.157 A 
BRANCH  25  28
ATOM     28  O   UNL     1      -1.554   1.081 -27.697  1.00  0.00    -0.504 OA
ATOM     29  H   UNL     1      -1.654   1.951 -28.118  1.00  0.00     0.293 HD
ENDBRANCH  25  28
BRANCH  27  30
ATOM     30  O   UNL     1      -1.475   0.214 -30.262  1.00  0.00    -0.504 OA
ATOM     31  H   UNL     1      -0.703  -0.281 -29.921  1.00  0.00     0.293 HD
ENDBRANCH  27  30
ENDBRANCH  21  22
ENDBRANCH   1  20
TORSDOF 11
ENDMDL
MODEL 8
REMARK VINA RESULT:      -7.7      3.765      6.740
REMARK SMILES O=C(/C=C/c1ccc(O)c(O)c1)O[C@@H]1C[C@](O)(C(=O)O)C[C@@H](O)[C@H]1O
REMARK SMILES IDX 2 1 1 2 13 3 14 4 21 5 22 6 16 7 24 8 15 9 23 10 17 12 18 14
REMARK SMILES IDX 19 15 20 16 25 18 3 20 4 21 5 22 12 23 6 24 10 25 7 26 8 27
REMARK SMILES IDX 11 28 9 30
REMARK H PARENT 23 11 17 13 20 17 25 19 11 29 9 31
ROOT
ATOM      1  C   UNL     1      -8.253  -0.724 -31.326  1.00  0.00     0.331 C 
ATOM      2  O   UNL     1      -8.202  -0.703 -32.548  1.00  0.00    -0.247 OA
ENDROOT
BRANCH   1   3
ATOM      3  O   UNL     1      -9.350  -1.007 -30.585  1.00  0.00    -0.456 OA
BRANCH   3   4
ATOM      4  C   UNL     1      -9.135  -1.882 -29.458  1.00  0.00     0.211 C 
ATOM      5  C   UNL     1     -10.309  -3.746 -27.459  1.00  0.00     0.082 C 
ATOM      6  C   UNL     1      -9.922  -2.319 -27.073  1.00  0.00     0.150 C 
ATOM      7  C   UNL     1      -9.486  -4.259 -28.647  1.00  0.00     0.167 C 
ATOM      8  C   UNL     1      -9.962  -1.355 -28.271  1.00  0.00     0.184 C 
ATOM      9  C   UNL     1      -9.569  -3.303 -29.836  1.00  0.00     0.095 C 
BRANCH   6  10
ATOM     10  O   UNL     1      -8.605  -2.283 -26.500  1.00  0.00    -0.390 OA
ATOM     11  H   UNL     1      -8.402  -3.169 -26.136  1.00  0.00     0.211 HD
ENDBRANCH   6  10
BRANCH   7  12
ATOM     12  O   UNL     1      -8.110  -4.379 -28.221  1.00  0.00    -0.378 OA
ATOM     13  H   UNL     1      -8.074  -4.125 -27.274  1.00  0.00     0.212 HD
ENDBRANCH   7  12
BRANCH   7  14
ATOM     14  C   UNL     1      -9.996  -5.656 -29.033  1.00  0.00     0.335 C 
ATOM     15  O   UNL     1     -10.534  -5.941 -30.090  1.00  0.00    -0.249 OA
BRANCH  14  16
ATOM     16  O   UNL     1      -9.797  -6.554 -28.035  1.00  0.00    -0.479 OA
ATOM     17  H   UNL     1     -10.032  -6.145 -27.171  1.00  0.00     0.296 HD
ENDBRANCH  14  16
ENDBRANCH   7  14
BRANCH   8  18
ATOM     18  O   UNL     1      -9.447  -0.083 -27.853  1.00  0.00    -0.387 OA
ATOM     19  H   UNL     1      -8.483  -0.210 -27.738  1.00  0.00     0.211 HD
ENDBRANCH   8  18
ENDBRANCH   3   4
ENDBRANCH   1   3
BRANCH   1  20
ATOM     20  C   UNL     1      -7.087  -0.388 -30.485  1.00  0.00     0.094 C 
ATOM     21  C   UNL     1      -5.855  -0.152 -30.964  1.00  0.00     0.016 C 
BRANCH  21  22
ATOM     22  C   UNL     1      -4.711   0.193 -30.111  1.00  0.00    -0.021 A 
ATOM     23  C   UNL     1      -4.614   1.437 -29.467  1.00  0.00     0.058 A 
ATOM     24  C   UNL     1      -3.718  -0.775 -29.891  1.00  0.00     0.012 A 
ATOM     25  C   UNL     1      -3.524   1.699 -28.642  1.00  0.00     0.157 A 
ATOM     26  C   UNL     1      -2.625  -0.502 -29.063  1.00  0.00     0.051 A 
ATOM     27  C   UNL     1      -2.538   0.737 -28.447  1.00  0.00     0.157 A 
BRANCH  25  28
ATOM     28  O   UNL     1      -3.380   2.894 -27.992  1.00  0.00    -0.504 OA
ATOM     29  H   UNL     1      -3.900   3.565 -28.466  1.00  0.00     0.293 HD
ENDBRANCH  25  28
BRANCH  27  30
ATOM     30  O   UNL     1      -1.474   1.003 -27.635  1.00  0.00    -0.504 OA
ATOM     31  H   UNL     1      -0.883   0.232 -27.745  1.00  0.00     0.293 HD
ENDBRANCH  27  30
ENDBRANCH  21  22
ENDBRANCH   1  20
TORSDOF 11
ENDMDL
MODEL 9
REMARK VINA RESULT:      -7.6      2.770      7.116
REMARK SMILES O=C(/C=C/c1ccc(O)c(O)c1)O[C@@H]1C[C@](O)(C(=O)O)C[C@@H](O)[C@H]1O
REMARK SMILES IDX 2 1 1 2 13 3 14 4 21 5 22 6 16 7 24 8 15 9 23 10 17 12 18 14
REMARK SMILES IDX 19 15 20 16 25 18 3 20 4 21 5 22 12 23 6 24 10 25 7 26 8 27
REMARK SMILES IDX 11 28 9 30
REMARK H PARENT 23 11 17 13 20 17 25 19 11 29 9 31
ROOT
ATOM      1  C   UNL     1      -8.086  -1.282 -26.376  1.00  0.00     0.331 C 
ATOM      2  O   UNL     1      -8.016  -1.610 -25.200  1.00  0.00    -0.247 OA
ENDROOT
BRANCH   1   3
ATOM      3  O   UNL     1      -9.194  -1.348 -27.151  1.00  0.00    -0.456 OA
BRANCH   3   4
ATOM      4  C   UNL     1      -8.962  -1.598 -28.554  1.00  0.00     0.211 C 
ATOM      5  C   UNL     1     -10.107  -2.313 -31.204  1.00  0.00     0.082 C 
ATOM      6  C   UNL     1      -9.341  -3.342 -30.374  1.00  0.00     0.150 C 
ATOM      7  C   UNL     1      -9.670  -0.879 -30.880  1.00  0.00     0.167 C 
ATOM      8  C   UNL     1      -9.399  -3.041 -28.867  1.00  0.00     0.184 C 
ATOM      9  C   UNL     1      -9.770  -0.593 -29.382  1.00  0.00     0.095 C 
BRANCH   6  10
ATOM     10  O   UNL     1      -7.963  -3.402 -30.776  1.00  0.00    -0.390 OA
ATOM     11  H   UNL     1      -7.406  -3.148 -30.010  1.00  0.00     0.211 HD
ENDBRANCH   6  10
BRANCH   7  12
ATOM     12  O   UNL     1      -8.300  -0.719 -31.311  1.00  0.00    -0.378 OA
ATOM     13  H   UNL     1      -7.937  -1.616 -31.470  1.00  0.00     0.212 HD
ENDBRANCH   7  12
BRANCH   7  14
ATOM     14  C   UNL     1     -10.547   0.095 -31.682  1.00  0.00     0.335 C 
ATOM     15  O   UNL     1     -10.474   1.312 -31.631  1.00  0.00    -0.249 OA
BRANCH  14  16
ATOM     16  O   UNL     1     -11.447  -0.564 -32.455  1.00  0.00    -0.479 OA
ATOM     17  H   UNL     1     -11.392  -0.234 -33.381  1.00  0.00     0.296 HD
ENDBRANCH  14  16
ENDBRANCH   7  14
BRANCH   8  18
ATOM     18  O   UNL     1      -8.540  -3.963 -28.181  1.00  0.00    -0.387 OA
ATOM     19  H   UNL     1      -7.992  -3.419 -27.578  1.00  0.00     0.211 HD
ENDBRANCH   8  18
ENDBRANCH   3   4
ENDBRANCH   1   3
BRANCH   1  20
ATOM     20  C   UNL     1      -6.910  -0.797 -27.128  1.00  0.00     0.094 C 
ATOM     21  C   UNL     1      -5.767  -1.487 -27.266  1.00  0.00     0.016 C 
BRANCH  21  22
ATOM     22  C   UNL     1      -4.614  -0.992 -28.029  1.00  0.00    -0.021 A 
ATOM     23  C   UNL     1      -3.637  -0.169 -27.445  1.00  0.00     0.058 A 
ATOM     24  C   UNL     1      -4.460  -1.404 -29.361  1.00  0.00     0.012 A 
ATOM     25  C   UNL     1      -2.546   0.244 -28.205  1.00  0.00     0.157 A 
ATOM     26  C   UNL     1      -3.362  -0.982 -30.117  1.00  0.00     0.051 A 
ATOM     27  C   UNL     1      -2.415  -0.158 -29.530  1.00  0.00     0.157 A 
BRANCH  25  28
ATOM     28  O   UNL     1      -1.567   1.047 -27.686  1.00  0.00    -0.504 OA
ATOM     29  H   UNL     1      -0.761   0.515 -27.578  1.00  0.00     0.293 HD
ENDBRANCH  25  28
BRANCH  27  30
ATOM     30  O   UNL     1      -1.341   0.252 -30.266  1.00  0.00    -0.504 OA
ATOM     31  H   UNL     1      -0.580  -0.220 -29.872  1.00  0.00     0.293 HD
ENDBRANCH  27  30
ENDBRANCH  21  22
ENDBRANCH   1  20
TORSDOF 11
ENDMDL
MODEL 10
REMARK VINA RESULT:      -7.6      4.788      7.975
REMARK SMILES O=C(/C=C/c1ccc(O)c(O)c1)O[C@@H]1C[C@](O)(C(=O)O)C[C@@H](O)[C@H]1O
REMARK SMILES IDX 2 1 1 2 13 3 14 4 21 5 22 6 16 7 24 8 15 9 23 10 17 12 18 14
REMARK SMILES IDX 19 15 20 16 25 18 3 20 4 21 5 22 12 23 6 24 10 25 7 26 8 27
REMARK SMILES IDX 11 28 9 30
REMARK H PARENT 23 11 17 13 20 17 25 19 11 29 9 31
ROOT
ATOM      1  C   UNL     1      -8.066  -0.948 -25.987  1.00  0.00     0.331 C 
ATOM      2  O   UNL     1      -8.074  -0.922 -24.764  1.00  0.00    -0.247 OA
ENDROOT
BRANCH   1   3
ATOM      3  O   UNL     1      -9.076  -1.386 -26.775  1.00  0.00    -0.456 OA
BRANCH   3   4
ATOM      4  C   UNL     1      -9.862  -2.472 -26.240  1.00  0.00     0.211 C 
ATOM      5  C   UNL     1     -12.236  -4.240 -26.530  1.00  0.00     0.082 C 
ATOM      6  C   UNL     1     -12.235  -3.079 -25.536  1.00  0.00     0.150 C 
ATOM      7  C   UNL     1     -10.818  -4.750 -26.813  1.00  0.00     0.167 C 
ATOM      8  C   UNL     1     -11.281  -1.948 -25.955  1.00  0.00     0.184 C 
ATOM      9  C   UNL     1      -9.898  -3.614 -27.261  1.00  0.00     0.095 C 
BRANCH   6  10
ATOM     10  O   UNL     1     -11.862  -3.529 -24.223  1.00  0.00    -0.390 OA
ATOM     11  H   UNL     1     -10.947  -3.230 -24.042  1.00  0.00     0.211 HD
ENDBRANCH   6  10
BRANCH   7  12
ATOM     12  O   UNL     1     -10.301  -5.337 -25.598  1.00  0.00    -0.378 OA
ATOM     13  H   UNL     1     -10.510  -6.295 -25.624  1.00  0.00     0.212 HD
ENDBRANCH   7  12
BRANCH   7  14
ATOM     14  C   UNL     1     -10.895  -5.847 -27.887  1.00  0.00     0.335 C 
ATOM     15  O   UNL     1     -11.594  -5.805 -28.885  1.00  0.00    -0.249 OA
BRANCH  14  16
ATOM     16  O   UNL     1     -10.097  -6.901 -27.582  1.00  0.00    -0.479 OA
ATOM     17  H   UNL     1     -10.398  -7.698 -28.076  1.00  0.00     0.296 HD
ENDBRANCH  14  16
ENDBRANCH   7  14
BRANCH   8  18
ATOM     18  O   UNL     1     -11.232  -0.975 -24.902  1.00  0.00    -0.387 OA
ATOM     19  H   UNL     1     -10.474  -0.391 -25.113  1.00  0.00     0.211 HD
ENDBRANCH   8  18
ENDBRANCH   3   4
ENDBRANCH   1   3
BRANCH   1  20
ATOM     20  C   UNL     1      -6.889  -0.529 -26.774  1.00  0.00     0.094 C 
ATOM     21  C   UNL     1      -5.845  -1.326 -27.051  1.00  0.00     0.016 C 
BRANCH  21  22
ATOM     22  C   UNL     1      -4.689  -0.893 -27.846  1.00  0.00    -0.021 A 
ATOM     23  C   UNL     1      -3.696  -0.052 -27.316  1.00  0.00     0.058 A 
ATOM     24  C   UNL     1      -4.548  -1.383 -29.154  1.00  0.00     0.012 A 
ATOM     25  C   UNL     1      -2.604   0.300 -28.103  1.00  0.00     0.157 A 
ATOM     26  C   UNL     1      -3.449  -1.022 -29.938  1.00  0.00     0.051 A 
ATOM     27  C   UNL     1      -2.486  -0.180 -29.403  1.00  0.00     0.157 A 
BRANCH  25  28
ATOM     28  O   UNL     1      -1.610   1.117 -27.636  1.00  0.00    -0.504 OA
ATOM     29  H   UNL     1      -1.344   1.715 -28.354  1.00  0.00     0.293 HD
ENDBRANCH  25  28
BRANCH  27  30
ATOM     30  O   UNL     1      -1.411   0.171 -30.167  1.00  0.00    -0.504 OA
ATOM     31  H   UNL     1      -1.118  -0.667 -30.577  1.00  0.00     0.293 HD
ENDBRANCH  27  30
ENDBRANCH  21  22
ENDBRANCH   1  20
TORSDOF 11
ENDMDL
