MODEL 1
REMARK VINA RESULT:      -8.0      0.000      0.000
REMARK SMILES O=C(/C=C/c1ccc(O)c(O)c1)O[C@H](Cc1ccc(O)c(O)c1)C(=O)O
REMARK SMILES IDX 13 1 14 2 15 3 16 4 17 5 18 6 19 7 23 8 21 9 20 10 22 12
REMARK SMILES IDX 24 14 25 15 26 16 2 18 1 19 3 20 4 21 5 22 12 23 6 24 10 25
REMARK SMILES IDX 7 26 8 27 11 28 9 30
REMARK H PARENT 20 11 22 13 26 17 11 29 9 31
ROOT
ATOM      1  O   UNL     1      -8.256  -0.089 -32.337  1.00  0.00    -0.447 OA
ENDROOT
BRANCH   1   2
ATOM      2  C   UNL     1      -9.366   0.511 -31.648  1.00  0.00     0.290 C 
BRANCH   2   3
ATOM      3  C   UNL     1      -9.747  -0.398 -30.467  1.00  0.00     0.093 C 
BRANCH   3   4
ATOM      4  C   UNL     1      -8.562  -0.769 -29.601  1.00  0.00    -0.040 A 
ATOM      5  C   UNL     1      -7.956  -2.031 -29.731  1.00  0.00     0.008 A 
ATOM      6  C   UNL     1      -6.853  -2.382 -28.946  1.00  0.00     0.050 A 
ATOM      7  C   UNL     1      -6.353  -1.466 -28.031  1.00  0.00     0.157 A 
ATOM      8  C   UNL     1      -8.053   0.137 -28.658  1.00  0.00     0.054 A 
ATOM      9  C   UNL     1      -6.952  -0.217 -27.891  1.00  0.00     0.157 A 
BRANCH   7  10
ATOM     10  O   UNL     1      -5.273  -1.745 -27.241  1.00  0.00    -0.504 OA
ATOM     11  H   UNL     1      -4.752  -2.442 -27.677  1.00  0.00     0.293 HD
ENDBRANCH   7  10
BRANCH   9  12
ATOM     12  O   UNL     1      -6.454   0.681 -26.991  1.00  0.00    -0.504 OA
ATOM     13  H   UNL     1      -7.183   1.316 -26.848  1.00  0.00     0.293 HD
ENDBRANCH   9  12
ENDBRANCH   3   4
ENDBRANCH   2   3
BRANCH   2  14
ATOM     14  C   UNL     1     -10.581   0.694 -32.570  1.00  0.00     0.345 C 
ATOM     15  O   UNL     1     -11.301  -0.215 -32.957  1.00  0.00    -0.248 OA
BRANCH  14  16
ATOM     16  O   UNL     1     -10.812   1.980 -32.927  1.00  0.00    -0.478 OA
ATOM     17  H   UNL     1     -11.672   2.123 -33.392  1.00  0.00     0.296 HD
ENDBRANCH  14  16
ENDBRANCH   2  14
ENDBRANCH   1   2
BRANCH   1  18
ATOM     18  C   UNL     1      -7.392   0.785 -32.901  1.00  0.00     0.331 C 
ATOM     19  O   UNL     1      -7.443   1.168 -34.059  1.00  0.00    -0.247 OA
BRANCH  18  20
ATOM     20  C   UNL     1      -6.361   1.142 -31.913  1.00  0.00     0.094 C 
ATOM     21  C   UNL     1      -5.510   0.206 -31.468  1.00  0.00     0.016 C 
BRANCH  21  22
ATOM     22  C   UNL     1      -4.469   0.473 -30.469  1.00  0.00    -0.021 A 
ATOM     23  C   UNL     1      -4.452   1.662 -29.721  1.00  0.00     0.058 A 
ATOM     24  C   UNL     1      -3.505  -0.516 -30.211  1.00  0.00     0.012 A 
ATOM     25  C   UNL     1      -3.470   1.851 -28.753  1.00  0.00     0.157 A 
ATOM     26  C   UNL     1      -2.521  -0.315 -29.240  1.00  0.00     0.051 A 
ATOM     27  C   UNL     1      -2.512   0.869 -28.520  1.00  0.00     0.157 A 
BRANCH  25  28
ATOM     28  O   UNL     1      -3.410   2.988 -27.996  1.00  0.00    -0.504 OA
ATOM     29  H   UNL     1      -3.160   3.729 -28.574  1.00  0.00     0.293 HD
ENDBRANCH  25  28
BRANCH  27  30
ATOM     30  O   UNL     1      -1.555   1.062 -27.566  1.00  0.00    -0.504 OA
ATOM     31  H   UNL     1      -0.716   1.110 -28.067  1.00  0.00     0.293 HD
ENDBRANCH  27  30
ENDBRANCH  21  22
ENDBRANCH  18  20
ENDBRANCH   1  18
TORSDOF 12
ENDMDL
MODEL 2
REMARK VINA RESULT:      -7.8      2.223      5.988
REMARK SMILES O=C(/C=C/c1ccc(O)c(O)c1)O[C@H](Cc1ccc(O)c(O)c1)C(=O)O
REMARK SMILES IDX 13 1 14 2 15 3 16 4 17 5 18 6 19 7 23 8 21 9 20 10 22 12
REMARK SMILES IDX 24 14 25 15 26 16 2 18 1 19 3 20 4 21 5 22 12 23 6 24 10 25
REMARK SMILES IDX 7 26 8 27 11 28 9 30
REMARK H PARENT 20 11 22 13 26 17 11 29 9 31
ROOT
ATOM      1  O   UNL     1      -3.923   2.104 -29.950  1.00  0.00    -0.447 OA
ENDROOT
BRANCH   1   2
ATOM      2  C   UNL     1      -3.952   0.666 -29.980  1.00  0.00     0.290 C 
BRANCH   2   3
ATOM      3  C   UNL     1      -3.069   0.143 -28.834  1.00  0.00     0.093 C 
BRANCH   3   4
ATOM      4  C   UNL     1      -3.871  -0.411 -27.675  1.00  0.00    -0.040 A 
ATOM      5  C   UNL     1      -4.485  -1.671 -27.776  1.00  0.00     0.008 A 
ATOM      6  C   UNL     1      -5.219  -2.200 -26.709  1.00  0.00     0.050 A 
ATOM      7  C   UNL     1      -5.335  -1.465 -25.537  1.00  0.00     0.157 A 
ATOM      8  C   UNL     1      -4.015   0.324 -26.489  1.00  0.00     0.054 A 
ATOM      9  C   UNL     1      -4.736  -0.213 -25.432  1.00  0.00     0.157 A 
BRANCH   7  10
ATOM     10  O   UNL     1      -6.031  -1.930 -24.456  1.00  0.00    -0.504 OA
ATOM     11  H   UNL     1      -5.515  -2.648 -24.050  1.00  0.00     0.293 HD
ENDBRANCH   7  10
BRANCH   9  12
ATOM     12  O   UNL     1      -4.852   0.503 -24.275  1.00  0.00    -0.504 OA
ATOM     13  H   UNL     1      -5.672   1.023 -24.390  1.00  0.00     0.293 HD
ENDBRANCH   9  12
ENDBRANCH   3   4
ENDBRANCH   2   3
BRANCH   2  14
ATOM     14  C   UNL     1      -3.442   0.111 -31.318  1.00  0.00     0.345 C 
ATOM     15  O   UNL     1      -3.110  -1.051 -31.506  1.00  0.00    -0.248 OA
BRANCH  14  16
ATOM     16  O   UNL     1      -3.395   1.029 -32.313  1.00  0.00    -0.478 OA
ATOM     17  H   UNL     1      -3.410   1.967 -32.000  1.00  0.00     0.296 HD
ENDBRANCH  14  16
ENDBRANCH   2  14
ENDBRANCH   1   2
BRANCH   1  18
ATOM     18  C   UNL     1      -5.028   2.688 -29.436  1.00  0.00     0.331 C 
ATOM     19  O   UNL     1      -5.023   3.618 -28.644  1.00  0.00    -0.247 OA
BRANCH  18  20
ATOM     20  C   UNL     1      -6.218   1.985 -29.942  1.00  0.00     0.094 C 
ATOM     21  C   UNL     1      -6.618   2.175 -31.208  1.00  0.00     0.016 C 
BRANCH  21  22
ATOM     22  C   UNL     1      -7.805   1.532 -31.785  1.00  0.00    -0.021 A 
ATOM     23  C   UNL     1      -8.905   1.168 -30.990  1.00  0.00     0.058 A 
ATOM     24  C   UNL     1      -7.865   1.337 -33.174  1.00  0.00     0.012 A 
ATOM     25  C   UNL     1     -10.026   0.600 -31.588  1.00  0.00     0.157 A 
ATOM     26  C   UNL     1      -8.993   0.762 -33.765  1.00  0.00     0.051 A 
ATOM     27  C   UNL     1     -10.064   0.398 -32.965  1.00  0.00     0.157 A 
BRANCH  25  28
ATOM     28  O   UNL     1     -11.124   0.231 -30.862  1.00  0.00    -0.504 OA
ATOM     29  H   UNL     1     -11.355  -0.684 -31.101  1.00  0.00     0.293 HD
ENDBRANCH  25  28
BRANCH  27  30
ATOM     30  O   UNL     1     -11.169  -0.156 -33.543  1.00  0.00    -0.504 OA
ATOM     31  H   UNL     1     -10.843  -0.982 -33.954  1.00  0.00     0.293 HD
ENDBRANCH  27  30
ENDBRANCH  21  22
ENDBRANCH  18  20
ENDBRANCH   1  18
TORSDOF 12
ENDMDL
MODEL 3
REMARK VINA RESULT:      -7.8      3.059      7.051
REMARK SMILES O=C(/C=C/c1ccc(O)c(O)c1)O[C@H](Cc1ccc(O)c(O)c1)C(=O)O
REMARK SMILES IDX 13 1 14 2 15 3 16 4 17 5 18 6 19 7 23 8 21 9 20 10 22 12
REMARK SMILES IDX 24 14 25 15 26 16 2 18 1 19 3 20 4 21 5 22 12 23 6 24 10 25
REMARK SMILES IDX 7 26 8 27 11 28 9 30
REMARK H PARENT 20 11 22 13 26 17 11 29 9 31
ROOT
ATOM      1  O   UNL     1      -6.039  -0.802 -30.570  1.00  0.00    -0.447 OA
ENDROOT
BRANCH   1   2
ATOM      2  C   UNL     1      -5.363   0.467 -30.537  1.00  0.00     0.290 C 
BRANCH   2   3
ATOM      3  C   UNL     1      -6.418   1.577 -30.681  1.00  0.00     0.093 C 
BRANCH   3   4
ATOM      4  C   UNL     1      -7.631   1.140 -31.475  1.00  0.00    -0.040 A 
ATOM      5  C   UNL     1      -7.573   1.069 -32.877  1.00  0.00     0.008 A 
ATOM      6  C   UNL     1      -8.682   0.655 -33.622  1.00  0.00     0.050 A 
ATOM      7  C   UNL     1      -9.852   0.309 -32.960  1.00  0.00     0.157 A 
ATOM      8  C   UNL     1      -8.828   0.803 -30.825  1.00  0.00     0.054 A 
ATOM      9  C   UNL     1      -9.920   0.383 -31.571  1.00  0.00     0.157 A 
BRANCH   7  10
ATOM     10  O   UNL     1     -10.967  -0.112 -33.630  1.00  0.00    -0.504 OA
ATOM     11  H   UNL     1     -10.695  -0.403 -34.518  1.00  0.00     0.293 HD
ENDBRANCH   7  10
BRANCH   9  12
ATOM     12  O   UNL     1     -11.073   0.039 -30.926  1.00  0.00    -0.504 OA
ATOM     13  H   UNL     1     -11.248  -0.880 -31.211  1.00  0.00     0.293 HD
ENDBRANCH   9  12
ENDBRANCH   3   4
ENDBRANCH   2   3
BRANCH   2  14
ATOM     14  C   UNL     1      -4.327   0.593 -31.663  1.00  0.00     0.345 C 
ATOM     15  O   UNL     1      -4.287   1.510 -32.471  1.00  0.00    -0.248 OA
BRANCH  14  16
ATOM     16  O   UNL     1      -3.421  -0.415 -31.693  1.00  0.00    -0.478 OA
ATOM     17  H   UNL     1      -2.556  -0.194 -31.269  1.00  0.00     0.296 HD
ENDBRANCH  14  16
ENDBRANCH   2  14
ENDBRANCH   1   2
BRANCH   1  18
ATOM     18  C   UNL     1      -5.604  -1.706 -29.664  1.00  0.00     0.331 C 
ATOM     19  O   UNL     1      -4.432  -1.917 -29.395  1.00  0.00    -0.247 OA
BRANCH  18  20
ATOM     20  C   UNL     1      -6.765  -2.422 -29.109  1.00  0.00     0.094 C 
ATOM     21  C   UNL     1      -7.545  -3.155 -29.917  1.00  0.00     0.016 C 
BRANCH  21  22
ATOM     22  C   UNL     1      -8.732  -3.881 -29.450  1.00  0.00    -0.021 A 
ATOM     23  C   UNL     1      -9.518  -4.649 -30.326  1.00  0.00     0.058 A 
ATOM     24  C   UNL     1      -9.048  -3.859 -28.082  1.00  0.00     0.012 A 
ATOM     25  C   UNL     1     -10.609  -5.355 -29.830  1.00  0.00     0.157 A 
ATOM     26  C   UNL     1     -10.149  -4.568 -27.594  1.00  0.00     0.051 A 
ATOM     27  C   UNL     1     -10.920  -5.310 -28.474  1.00  0.00     0.157 A 
BRANCH  25  28
ATOM     28  O   UNL     1     -11.404  -6.119 -30.637  1.00  0.00    -0.504 OA
ATOM     29  H   UNL     1     -10.914  -6.925 -30.877  1.00  0.00     0.293 HD
ENDBRANCH  25  28
BRANCH  27  30
ATOM     30  O   UNL     1     -11.990  -6.010 -27.995  1.00  0.00    -0.504 OA
ATOM     31  H   UNL     1     -12.676  -5.910 -28.685  1.00  0.00     0.293 HD
ENDBRANCH  27  30
ENDBRANCH  21  22
ENDBRANCH  18  20
ENDBRANCH   1  18
TORSDOF 12
ENDMDL
MODEL 4
REMARK VINA RESULT:      -7.6      2.129      2.875
REMARK SMILES O=C(/C=C/c1ccc(O)c(O)c1)O[C@H](Cc1ccc(O)c(O)c1)C(=O)O
REMARK SMILES IDX 13 1 14 2 15 3 16 4 17 5 18 6 19 7 23 8 21 9 20 10 22 12
REMARK SMILES IDX 24 14 25 15 26 16 2 18 1 19 3 20 4 21 5 22 12 23 6 24 10 25
REMARK SMILES IDX 7 26 8 27 11 28 9 30
REMARK H PARENT 20 11 22 13 26 17 11 29 9 31
ROOT
ATOM      1  O   UNL     1      -8.002   0.128 -33.155  1.00  0.00    -0.447 OA
ENDROOT
BRANCH   1   2
ATOM      2  C   UNL     1      -9.189   0.022 -32.350  1.00  0.00     0.290 C 
BRANCH   2   3
ATOM      3  C   UNL     1      -9.391  -1.458 -31.982  1.00  0.00     0.093 C 
BRANCH   3   4
ATOM      4  C   UNL     1      -9.310  -1.713 -30.492  1.00  0.00    -0.040 A 
ATOM      5  C   UNL     1      -9.716  -0.723 -29.581  1.00  0.00     0.008 A 
ATOM      6  C   UNL     1      -9.659  -0.950 -28.201  1.00  0.00     0.050 A 
ATOM      7  C   UNL     1      -9.195  -2.172 -27.734  1.00  0.00     0.157 A 
ATOM      8  C   UNL     1      -8.828  -2.936 -30.000  1.00  0.00     0.054 A 
ATOM      9  C   UNL     1      -8.784  -3.155 -28.631  1.00  0.00     0.157 A 
BRANCH   7  10
ATOM     10  O   UNL     1      -9.122  -2.458 -26.399  1.00  0.00    -0.504 OA
ATOM     11  H   UNL     1      -9.359  -3.395 -26.278  1.00  0.00     0.293 HD
ENDBRANCH   7  10
BRANCH   9  12
ATOM     12  O   UNL     1      -8.332  -4.356 -28.165  1.00  0.00    -0.504 OA
ATOM     13  H   UNL     1      -7.927  -4.147 -27.300  1.00  0.00     0.293 HD
ENDBRANCH   9  12
ENDBRANCH   3   4
ENDBRANCH   2   3
BRANCH   2  14
ATOM     14  C   UNL     1     -10.430   0.543 -33.088  1.00  0.00     0.345 C 
ATOM     15  O   UNL     1     -11.058  -0.091 -33.924  1.00  0.00    -0.248 OA
BRANCH  14  16
ATOM     16  O   UNL     1     -10.801   1.795 -32.727  1.00  0.00    -0.478 OA
ATOM     17  H   UNL     1     -10.227   2.203 -32.032  1.00  0.00     0.296 HD
ENDBRANCH  14  16
ENDBRANCH   2  14
ENDBRANCH   1   2
BRANCH   1  18
ATOM     18  C   UNL     1      -7.035   0.925 -32.649  1.00  0.00     0.331 C 
ATOM     19  O   UNL     1      -6.357   1.703 -33.303  1.00  0.00    -0.247 OA
BRANCH  18  20
ATOM     20  C   UNL     1      -6.901   0.657 -31.208  1.00  0.00     0.094 C 
ATOM     21  C   UNL     1      -6.018  -0.257 -30.779  1.00  0.00     0.016 C 
BRANCH  21  22
ATOM     22  C   UNL     1      -5.837  -0.601 -29.364  1.00  0.00    -0.021 A 
ATOM     23  C   UNL     1      -6.164   0.302 -28.338  1.00  0.00     0.058 A 
ATOM     24  C   UNL     1      -5.388  -1.889 -29.029  1.00  0.00     0.012 A 
ATOM     25  C   UNL     1      -6.017  -0.085 -27.010  1.00  0.00     0.157 A 
ATOM     26  C   UNL     1      -5.239  -2.267 -27.692  1.00  0.00     0.051 A 
ATOM     27  C   UNL     1      -5.554  -1.359 -26.694  1.00  0.00     0.157 A 
BRANCH  25  28
ATOM     28  O   UNL     1      -6.322   0.753 -25.974  1.00  0.00    -0.504 OA
ATOM     29  H   UNL     1      -6.740   0.230 -25.269  1.00  0.00     0.293 HD
ENDBRANCH  25  28
BRANCH  27  30
ATOM     30  O   UNL     1      -5.416  -1.731 -25.388  1.00  0.00    -0.504 OA
ATOM     31  H   UNL     1      -6.256  -1.459 -24.965  1.00  0.00     0.293 HD
ENDBRANCH  27  30
ENDBRANCH  21  22
ENDBRANCH  18  20
ENDBRANCH   1  18
TORSDOF 12
ENDMDL
MODEL 5
REMARK VINA RESULT:      -7.6      1.756      6.162
REMARK SMILES O=C(/C=C/c1ccc(O)c(O)c1)O[C@H](Cc1ccc(O)c(O)c1)C(=O)O
REMARK SMILES IDX 13 1 14 2 15 3 16 4 17 5 18 6 19 7 23 8 21 9 20 10 22 12
REMARK SMILES IDX 24 14 25 15 26 16 2 18 1 19 3 20 4 21 5 22 12 23 6 24 10 25
REMARK SMILES IDX 7 26 8 27 11 28 9 30
REMARK H PARENT 20 11 22 13 26 17 11 29 9 31
ROOT
ATOM      1  O   UNL     1      -4.339   1.560 -28.394  1.00  0.00    -0.447 OA
ENDROOT
BRANCH   1   2
ATOM      2  C   UNL     1      -3.684   0.374 -28.875  1.00  0.00     0.290 C 
BRANCH   2   3
ATOM      3  C   UNL     1      -4.130  -0.810 -28.001  1.00  0.00     0.093 C 
BRANCH   3   4
ATOM      4  C   UNL     1      -5.493  -1.347 -28.385  1.00  0.00    -0.040 A 
ATOM      5  C   UNL     1      -5.737  -1.790 -29.696  1.00  0.00     0.008 A 
ATOM      6  C   UNL     1      -6.988  -2.300 -30.061  1.00  0.00     0.050 A 
ATOM      7  C   UNL     1      -7.995  -2.368 -29.108  1.00  0.00     0.157 A 
ATOM      8  C   UNL     1      -6.530  -1.408 -27.441  1.00  0.00     0.054 A 
ATOM      9  C   UNL     1      -7.764  -1.925 -27.809  1.00  0.00     0.157 A 
BRANCH   7  10
ATOM     10  O   UNL     1      -9.236  -2.864 -29.400  1.00  0.00    -0.504 OA
ATOM     11  H   UNL     1      -9.794  -2.764 -28.609  1.00  0.00     0.293 HD
ENDBRANCH   7  10
BRANCH   9  12
ATOM     12  O   UNL     1      -8.758  -1.998 -26.877  1.00  0.00    -0.504 OA
ATOM     13  H   UNL     1      -9.081  -1.079 -26.790  1.00  0.00     0.293 HD
ENDBRANCH   9  12
ENDBRANCH   3   4
ENDBRANCH   2   3
BRANCH   2  14
ATOM     14  C   UNL     1      -2.155   0.504 -28.825  1.00  0.00     0.345 C 
ATOM     15  O   UNL     1      -1.406   0.245 -29.757  1.00  0.00    -0.248 OA
BRANCH  14  16
ATOM     16  O   UNL     1      -1.678   0.951 -27.638  1.00  0.00    -0.478 OA
ATOM     17  H   UNL     1      -0.745   0.684 -27.450  1.00  0.00     0.296 HD
ENDBRANCH  14  16
ENDBRANCH   2  14
ENDBRANCH   1   2
BRANCH   1  18
ATOM     18  C   UNL     1      -4.776   2.404 -29.355  1.00  0.00     0.331 C 
ATOM     19  O   UNL     1      -4.203   3.425 -29.703  1.00  0.00    -0.247 OA
BRANCH  18  20
ATOM     20  C   UNL     1      -6.071   1.920 -29.861  1.00  0.00     0.094 C 
ATOM     21  C   UNL     1      -6.210   1.618 -31.160  1.00  0.00     0.016 C 
BRANCH  21  22
ATOM     22  C   UNL     1      -7.470   1.151 -31.750  1.00  0.00    -0.021 A 
ATOM     23  C   UNL     1      -8.618   0.944 -30.967  1.00  0.00     0.058 A 
ATOM     24  C   UNL     1      -7.544   0.972 -33.141  1.00  0.00     0.012 A 
ATOM     25  C   UNL     1      -9.802   0.543 -31.577  1.00  0.00     0.157 A 
ATOM     26  C   UNL     1      -8.737   0.565 -33.744  1.00  0.00     0.051 A 
ATOM     27  C   UNL     1      -9.856   0.353 -32.955  1.00  0.00     0.157 A 
BRANCH  25  28
ATOM     28  O   UNL     1     -10.948   0.330 -30.863  1.00  0.00    -0.504 OA
ATOM     29  H   UNL     1     -11.037  -0.625 -30.702  1.00  0.00     0.293 HD
ENDBRANCH  25  28
BRANCH  27  30
ATOM     30  O   UNL     1     -11.024  -0.036 -33.546  1.00  0.00    -0.504 OA
ATOM     31  H   UNL     1     -11.021  -1.012 -33.473  1.00  0.00     0.293 HD
ENDBRANCH  27  30
ENDBRANCH  21  22
ENDBRANCH  18  20
ENDBRANCH   1  18
TORSDOF 12
ENDMDL
MODEL 6
REMARK VINA RESULT:      -7.5      2.359      3.949
REMARK SMILES O=C(/C=C/c1ccc(O)c(O)c1)O[C@H](Cc1ccc(O)c(O)c1)C(=O)O
REMARK SMILES IDX 13 1 14 2 15 3 16 4 17 5 18 6 19 7 23 8 21 9 20 10 22 12
REMARK SMILES IDX 24 14 25 15 26 16 2 18 1 19 3 20 4 21 5 22 12 23 6 24 10 25
REMARK SMILES IDX 7 26 8 27 11 28 9 30
REMARK H PARENT 20 11 22 13 26 17 11 29 9 31
ROOT
ATOM      1  O   UNL     1      -6.485  -0.169 -31.453  1.00  0.00    -0.447 OA
ENDROOT
BRANCH   1   2
ATOM      2  C   UNL     1      -6.874  -1.036 -30.374  1.00  0.00     0.290 C 
BRANCH   2   3
ATOM      3  C   UNL     1      -5.662  -1.903 -29.992  1.00  0.00     0.093 C 
BRANCH   3   4
ATOM      4  C   UNL     1      -4.545  -1.107 -29.350  1.00  0.00    -0.040 A 
ATOM      5  C   UNL     1      -3.355  -0.858 -30.055  1.00  0.00     0.008 A 
ATOM      6  C   UNL     1      -2.321  -0.113 -29.479  1.00  0.00     0.050 A 
ATOM      7  C   UNL     1      -2.480   0.384 -28.192  1.00  0.00     0.157 A 
ATOM      8  C   UNL     1      -4.680  -0.610 -28.044  1.00  0.00     0.054 A 
ATOM      9  C   UNL     1      -3.653   0.136 -27.484  1.00  0.00     0.157 A 
BRANCH   7  10
ATOM     10  O   UNL     1      -1.510   1.126 -27.577  1.00  0.00    -0.504 OA
ATOM     11  H   UNL     1      -1.922   1.940 -27.239  1.00  0.00     0.293 HD
ENDBRANCH   7  10
BRANCH   9  12
ATOM     12  O   UNL     1      -3.804   0.630 -26.221  1.00  0.00    -0.504 OA
ATOM     13  H   UNL     1      -4.642   1.133 -26.253  1.00  0.00     0.293 HD
ENDBRANCH   9  12
ENDBRANCH   3   4
ENDBRANCH   2   3
BRANCH   2  14
ATOM     14  C   UNL     1      -8.052  -1.941 -30.762  1.00  0.00     0.345 C 
ATOM     15  O   UNL     1      -8.563  -2.771 -30.022  1.00  0.00    -0.248 OA
BRANCH  14  16
ATOM     16  O   UNL     1      -8.509  -1.740 -32.021  1.00  0.00    -0.478 OA
ATOM     17  H   UNL     1      -7.932  -1.157 -32.573  1.00  0.00     0.296 HD
ENDBRANCH  14  16
ENDBRANCH   2  14
ENDBRANCH   1   2
BRANCH   1  18
ATOM     18  C   UNL     1      -6.934   1.102 -31.358  1.00  0.00     0.331 C 
ATOM     19  O   UNL     1      -8.101   1.442 -31.479  1.00  0.00    -0.247 OA
BRANCH  18  20
ATOM     20  C   UNL     1      -5.787   1.999 -31.145  1.00  0.00     0.094 C 
ATOM     21  C   UNL     1      -5.719   2.744 -30.032  1.00  0.00     0.016 C 
BRANCH  21  22
ATOM     22  C   UNL     1      -4.623   3.679 -29.753  1.00  0.00    -0.021 A 
ATOM     23  C   UNL     1      -4.296   4.718 -30.640  1.00  0.00     0.058 A 
ATOM     24  C   UNL     1      -3.931   3.570 -28.536  1.00  0.00     0.012 A 
ATOM     25  C   UNL     1      -3.277   5.607 -30.312  1.00  0.00     0.157 A 
ATOM     26  C   UNL     1      -2.906   4.465 -28.217  1.00  0.00     0.051 A 
ATOM     27  C   UNL     1      -2.588   5.476 -29.110  1.00  0.00     0.157 A 
BRANCH  25  28
ATOM     28  O   UNL     1      -2.921   6.636 -31.138  1.00  0.00    -0.504 OA
ATOM     29  H   UNL     1      -3.474   6.593 -31.937  1.00  0.00     0.293 HD
ENDBRANCH  25  28
BRANCH  27  30
ATOM     30  O   UNL     1      -1.593   6.355 -28.794  1.00  0.00    -0.504 OA
ATOM     31  H   UNL     1      -1.982   7.237 -28.962  1.00  0.00     0.293 HD
ENDBRANCH  27  30
ENDBRANCH  21  22
ENDBRANCH  18  20
ENDBRANCH   1  18
TORSDOF 12
ENDMDL
MODEL 7
REMARK VINA RESULT:      -7.5      1.859      3.152
REMARK SMILES O=C(/C=C/c1ccc(O)c(O)c1)O[C@H](Cc1ccc(O)c(O)c1)C(=O)O
REMARK SMILES IDX 13 1 14 2 15 3 16 4 17 5 18 6 19 7 23 8 21 9 20 10 22 12
REMARK SMILES IDX 24 14 25 15 26 16 2 18 1 19 3 20 4 21 5 22 12 23 6 24 10 25
REMARK SMILES IDX 7 26 8 27 11 28 9 30
REMARK H PARENT 20 11 22 13 26 17 11 29 9 31
ROOT
ATOM      1  O   UNL     1      -9.595  -0.832 -31.090  1.00  0.00    -0.447 OA
ENDROOT
BRANCH   1   2
ATOM      2  C   UNL     1      -9.274   0.305 -31.909  1.00  0.00     0.290 C 
BRANCH   2   3
ATOM      3  C   UNL     1      -9.139   1.534 -30.994  1.00  0.00     0.093 C 
BRANCH   3   4
ATOM      4  C   UNL     1      -7.698   1.912 -30.723  1.00  0.00    -0.040 A 
ATOM      5  C   UNL     1      -6.794   2.069 -31.787  1.00  0.00     0.008 A 
ATOM      6  C   UNL     1      -5.463   2.430 -31.551  1.00  0.00     0.050 A 
ATOM      7  C   UNL     1      -5.038   2.637 -30.246  1.00  0.00     0.157 A 
ATOM      8  C   UNL     1      -7.245   2.109 -29.409  1.00  0.00     0.054 A 
ATOM      9  C   UNL     1      -5.926   2.477 -29.186  1.00  0.00     0.157 A 
BRANCH   7  10
ATOM     10  O   UNL     1      -3.753   3.000 -29.950  1.00  0.00    -0.504 OA
ATOM     11  H   UNL     1      -3.250   3.036 -30.782  1.00  0.00     0.293 HD
ENDBRANCH   7  10
BRANCH   9  12
ATOM     12  O   UNL     1      -5.502   2.685 -27.904  1.00  0.00    -0.504 OA
ATOM     13  H   UNL     1      -6.325   2.736 -27.379  1.00  0.00     0.293 HD
ENDBRANCH   9  12
ENDBRANCH   3   4
ENDBRANCH   2   3
BRANCH   2  14
ATOM     14  C   UNL     1     -10.353   0.569 -32.970  1.00  0.00     0.345 C 
ATOM     15  O   UNL     1     -10.720  -0.247 -33.804  1.00  0.00    -0.248 OA
BRANCH  14  16
ATOM     16  O   UNL     1     -10.895   1.809 -32.908  1.00  0.00    -0.478 OA
ATOM     17  H   UNL     1     -11.537   2.007 -33.633  1.00  0.00     0.296 HD
ENDBRANCH  14  16
ENDBRANCH   2  14
ENDBRANCH   1   2
BRANCH   1  18
ATOM     18  C   UNL     1      -8.745  -1.877 -31.201  1.00  0.00     0.331 C 
ATOM     19  O   UNL     1      -9.083  -3.039 -31.364  1.00  0.00    -0.247 OA
BRANCH  18  20
ATOM     20  C   UNL     1      -7.365  -1.389 -31.037  1.00  0.00     0.094 C 
ATOM     21  C   UNL     1      -6.693  -1.658 -29.908  1.00  0.00     0.016 C 
BRANCH  21  22
ATOM     22  C   UNL     1      -5.325  -1.191 -29.654  1.00  0.00    -0.021 A 
ATOM     23  C   UNL     1      -4.449  -0.867 -30.704  1.00  0.00     0.058 A 
ATOM     24  C   UNL     1      -4.906  -1.003 -28.326  1.00  0.00     0.012 A 
ATOM     25  C   UNL     1      -3.176  -0.387 -30.413  1.00  0.00     0.157 A 
ATOM     26  C   UNL     1      -3.624  -0.524 -28.045  1.00  0.00     0.051 A 
ATOM     27  C   UNL     1      -2.770  -0.221 -29.093  1.00  0.00     0.157 A 
BRANCH  25  28
ATOM     28  O   UNL     1      -2.287  -0.054 -31.397  1.00  0.00    -0.504 OA
ATOM     29  H   UNL     1      -1.664   0.601 -31.038  1.00  0.00     0.293 HD
ENDBRANCH  25  28
BRANCH  27  30
ATOM     30  O   UNL     1      -1.520   0.254 -28.817  1.00  0.00    -0.504 OA
ATOM     31  H   UNL     1      -0.987  -0.547 -28.639  1.00  0.00     0.293 HD
ENDBRANCH  27  30
ENDBRANCH  21  22
ENDBRANCH  18  20
ENDBRANCH   1  18
TORSDOF 12
ENDMDL
MODEL 8
REMARK VINA RESULT:      -7.4      2.578      6.832
REMARK SMILES O=C(/C=C/c1ccc(O)c(O)c1)O[C@H](Cc1ccc(O)c(O)c1)C(=O)O
REMARK SMILES IDX 13 1 14 2 15 3 16 4 17 5 18 6 19 7 23 8 21 9 20 10 22 12
REMARK SMILES IDX 24 14 25 15 26 16 2 18 1 19 3 20 4 21 5 22 12 23 6 24 10 25
REMARK SMILES IDX 7 26 8 27 11 28 9 30
REMARK H PARENT 20 11 22 13 26 17 11 29 9 31
ROOT
ATOM      1  O   UNL     1      -4.958  -0.172 -30.187  1.00  0.00    -0.447 OA
ENDROOT
BRANCH   1   2
ATOM      2  C   UNL     1      -5.797   0.990 -30.069  1.00  0.00     0.290 C 
BRANCH   2   3
ATOM      3  C   UNL     1      -6.134   1.487 -31.485  1.00  0.00     0.093 C 
BRANCH   3   4
ATOM      4  C   UNL     1      -7.510   1.057 -31.950  1.00  0.00    -0.040 A 
ATOM      5  C   UNL     1      -7.779   0.903 -33.321  1.00  0.00     0.008 A 
ATOM      6  C   UNL     1      -9.041   0.494 -33.763  1.00  0.00     0.050 A 
ATOM      7  C   UNL     1     -10.036   0.237 -32.830  1.00  0.00     0.157 A 
ATOM      8  C   UNL     1      -8.533   0.809 -31.023  1.00  0.00     0.054 A 
ATOM      9  C   UNL     1      -9.779   0.394 -31.470  1.00  0.00     0.157 A 
BRANCH   7  10
ATOM     10  O   UNL     1     -11.287  -0.173 -33.197  1.00  0.00    -0.504 OA
ATOM     11  H   UNL     1     -11.479   0.195 -34.078  1.00  0.00     0.293 HD
ENDBRANCH   7  10
BRANCH   9  12
ATOM     12  O   UNL     1     -10.761   0.136 -30.557  1.00  0.00    -0.504 OA
ATOM     13  H   UNL     1     -10.479   0.614 -29.752  1.00  0.00     0.293 HD
ENDBRANCH   9  12
ENDBRANCH   3   4
ENDBRANCH   2   3
BRANCH   2  14
ATOM     14  C   UNL     1      -5.111   2.114 -29.279  1.00  0.00     0.345 C 
ATOM     15  O   UNL     1      -4.531   3.064 -29.786  1.00  0.00    -0.248 OA
BRANCH  14  16
ATOM     16  O   UNL     1      -5.205   1.979 -27.934  1.00  0.00    -0.478 OA
ATOM     17  H   UNL     1      -4.995   2.802 -27.429  1.00  0.00     0.296 HD
ENDBRANCH  14  16
ENDBRANCH   2  14
ENDBRANCH   1   2
BRANCH   1  18
ATOM     18  C   UNL     1      -5.110  -1.090 -29.207  1.00  0.00     0.331 C 
ATOM     19  O   UNL     1      -4.489  -1.099 -28.155  1.00  0.00    -0.247 OA
BRANCH  18  20
ATOM     20  C   UNL     1      -6.094  -2.095 -29.642  1.00  0.00     0.094 C 
ATOM     21  C   UNL     1      -7.242  -2.242 -28.965  1.00  0.00     0.016 C 
BRANCH  21  22
ATOM     22  C   UNL     1      -8.265  -3.234 -29.318  1.00  0.00    -0.021 A 
ATOM     23  C   UNL     1      -8.498  -4.368 -28.523  1.00  0.00     0.058 A 
ATOM     24  C   UNL     1      -9.073  -3.005 -30.444  1.00  0.00     0.012 A 
ATOM     25  C   UNL     1      -9.509  -5.257 -28.874  1.00  0.00     0.157 A 
ATOM     26  C   UNL     1     -10.083  -3.907 -30.791  1.00  0.00     0.051 A 
ATOM     27  C   UNL     1     -10.291  -5.027 -30.002  1.00  0.00     0.157 A 
BRANCH  25  28
ATOM     28  O   UNL     1      -9.779  -6.374 -28.133  1.00  0.00    -0.504 OA
ATOM     29  H   UNL     1     -10.664  -6.697 -28.377  1.00  0.00     0.293 HD
ENDBRANCH  25  28
BRANCH  27  30
ATOM     30  O   UNL     1     -11.282  -5.903 -30.337  1.00  0.00    -0.504 OA
ATOM     31  H   UNL     1     -11.133  -6.091 -31.285  1.00  0.00     0.293 HD
ENDBRANCH  27  30
ENDBRANCH  21  22
ENDBRANCH  18  20
ENDBRANCH   1  18
TORSDOF 12
ENDMDL
MODEL 9
REMARK VINA RESULT:      -7.4      2.135      6.806
REMARK SMILES O=C(/C=C/c1ccc(O)c(O)c1)O[C@H](Cc1ccc(O)c(O)c1)C(=O)O
REMARK SMILES IDX 13 1 14 2 15 3 16 4 17 5 18 6 19 7 23 8 21 9 20 10 22 12
REMARK SMILES IDX 24 14 25 15 26 16 2 18 1 19 3 20 4 21 5 22 12 23 6 24 10 25
REMARK SMILES IDX 7 26 8 27 11 28 9 30
REMARK H PARENT 20 11 22 13 26 17 11 29 9 31
ROOT
ATOM      1  O   UNL     1      -7.041  -1.740 -26.501  1.00  0.00    -0.447 OA
ENDROOT
BRANCH   1   2
ATOM      2  C   UNL     1      -5.943  -0.814 -26.551  1.00  0.00     0.290 C 
BRANCH   2   3
ATOM      3  C   UNL     1      -4.811  -1.453 -27.373  1.00  0.00     0.093 C 
BRANCH   3   4
ATOM      4  C   UNL     1      -4.530  -0.714 -28.665  1.00  0.00    -0.040 A 
ATOM      5  C   UNL     1      -4.968   0.611 -28.834  1.00  0.00     0.008 A 
ATOM      6  C   UNL     1      -4.704   1.309 -30.016  1.00  0.00     0.050 A 
ATOM      7  C   UNL     1      -3.997   0.680 -31.032  1.00  0.00     0.157 A 
ATOM      8  C   UNL     1      -3.831  -1.338 -29.709  1.00  0.00     0.054 A 
ATOM      9  C   UNL     1      -3.565  -0.634 -30.875  1.00  0.00     0.157 A 
BRANCH   7  10
ATOM     10  O   UNL     1      -3.700   1.311 -32.208  1.00  0.00    -0.504 OA
ATOM     11  H   UNL     1      -2.802   1.047 -32.474  1.00  0.00     0.293 HD
ENDBRANCH   7  10
BRANCH   9  12
ATOM     12  O   UNL     1      -2.867  -1.246 -31.876  1.00  0.00    -0.504 OA
ATOM     13  H   UNL     1      -2.695  -2.148 -31.539  1.00  0.00     0.293 HD
ENDBRANCH   9  12
ENDBRANCH   3   4
ENDBRANCH   2   3
BRANCH   2  14
ATOM     14  C   UNL     1      -5.425  -0.463 -25.148  1.00  0.00     0.345 C 
ATOM     15  O   UNL     1      -5.860  -0.939 -24.109  1.00  0.00    -0.248 OA
BRANCH  14  16
ATOM     16  O   UNL     1      -4.410   0.434 -25.144  1.00  0.00    -0.478 OA
ATOM     17  H   UNL     1      -3.776   0.332 -25.895  1.00  0.00     0.296 HD
ENDBRANCH  14  16
ENDBRANCH   2  14
ENDBRANCH   1   2
BRANCH   1  18
ATOM     18  C   UNL     1      -8.267  -1.183 -26.626  1.00  0.00     0.331 C 
ATOM     19  O   UNL     1      -9.138  -1.210 -25.770  1.00  0.00    -0.247 OA
BRANCH  18  20
ATOM     20  C   UNL     1      -8.390  -0.599 -27.972  1.00  0.00     0.094 C 
ATOM     21  C   UNL     1      -8.748  -1.375 -29.005  1.00  0.00     0.016 C 
BRANCH  21  22
ATOM     22  C   UNL     1      -8.873  -0.879 -30.381  1.00  0.00    -0.021 A 
ATOM     23  C   UNL     1     -10.122  -0.771 -31.016  1.00  0.00     0.058 A 
ATOM     24  C   UNL     1      -7.720  -0.440 -31.052  1.00  0.00     0.012 A 
ATOM     25  C   UNL     1     -10.195  -0.254 -32.305  1.00  0.00     0.157 A 
ATOM     26  C   UNL     1      -7.803   0.075 -32.349  1.00  0.00     0.051 A 
ATOM     27  C   UNL     1      -9.042   0.162 -32.964  1.00  0.00     0.157 A 
BRANCH  25  28
ATOM     28  O   UNL     1     -11.384  -0.125 -32.966  1.00  0.00    -0.504 OA
ATOM     29  H   UNL     1     -11.949  -0.882 -32.732  1.00  0.00     0.293 HD
ENDBRANCH  25  28
BRANCH  27  30
ATOM     30  O   UNL     1      -9.124   0.672 -34.228  1.00  0.00    -0.504 OA
ATOM     31  H   UNL     1      -8.635   1.518 -34.182  1.00  0.00     0.293 HD
ENDBRANCH  27  30
ENDBRANCH  21  22
ENDBRANCH  18  20
ENDBRANCH   1  18
TORSDOF 12
ENDMDL
MODEL 10
REMARK VINA RESULT:      -7.3      1.664      2.093
REMARK SMILES O=C(/C=C/c1ccc(O)c(O)c1)O[C@H](Cc1ccc(O)c(O)c1)C(=O)O
REMARK SMILES IDX 13 1 14 2 15 3 16 4 17 5 18 6 19 7 23 8 21 9 20 10 22 12
REMARK SMILES IDX 24 14 25 15 26 16 2 18 1 19 3 20 4 21 5 22 12 23 6 24 10 25
REMARK SMILES IDX 7 26 8 27 11 28 9 30
REMARK H PARENT 20 11 22 13 26 17 11 29 9 31
ROOT
ATOM      1  O   UNL     1      -8.028  -0.017 -32.635  1.00  0.00    -0.447 OA
ENDROOT
BRANCH   1   2
ATOM      2  C   UNL     1      -9.308  -0.067 -31.980  1.00  0.00     0.290 C 
BRANCH   2   3
ATOM      3  C   UNL     1      -9.573  -1.520 -31.552  1.00  0.00     0.093 C 
BRANCH   3   4
ATOM      4  C   UNL     1      -9.492  -1.719 -30.053  1.00  0.00    -0.040 A 
ATOM      5  C   UNL     1      -9.443  -0.608 -29.193  1.00  0.00     0.008 A 
ATOM      6  C   UNL     1      -9.381  -0.777 -27.806  1.00  0.00     0.050 A 
ATOM      7  C   UNL     1      -9.370  -2.061 -27.279  1.00  0.00     0.157 A 
ATOM      8  C   UNL     1      -9.462  -3.009 -29.502  1.00  0.00     0.054 A 
ATOM      9  C   UNL     1      -9.411  -3.166 -28.125  1.00  0.00     0.157 A 
BRANCH   7  10
ATOM     10  O   UNL     1      -9.318  -2.293 -25.932  1.00  0.00    -0.504 OA
ATOM     11  H   UNL     1      -9.299  -3.255 -25.792  1.00  0.00     0.293 HD
ENDBRANCH   7  10
BRANCH   9  12
ATOM     12  O   UNL     1      -9.402  -4.427 -27.600  1.00  0.00    -0.504 OA
ATOM     13  H   UNL     1     -10.234  -4.485 -27.089  1.00  0.00     0.293 HD
ENDBRANCH   9  12
ENDBRANCH   3   4
ENDBRANCH   2   3
BRANCH   2  14
ATOM     14  C   UNL     1     -10.440   0.414 -32.899  1.00  0.00     0.345 C 
ATOM     15  O   UNL     1     -10.908  -0.237 -33.823  1.00  0.00    -0.248 OA
BRANCH  14  16
ATOM     16  O   UNL     1     -10.907   1.650 -32.597  1.00  0.00    -0.478 OA
ATOM     17  H   UNL     1     -11.199   1.754 -31.658  1.00  0.00     0.296 HD
ENDBRANCH  14  16
ENDBRANCH   2  14
ENDBRANCH   1   2
BRANCH   1  18
ATOM     18  C   UNL     1      -7.547   1.227 -32.859  1.00  0.00     0.331 C 
ATOM     19  O   UNL     1      -7.957   1.989 -33.720  1.00  0.00    -0.247 OA
BRANCH  18  20
ATOM     20  C   UNL     1      -6.424   1.477 -31.941  1.00  0.00     0.094 C 
ATOM     21  C   UNL     1      -5.766   0.444 -31.395  1.00  0.00     0.016 C 
BRANCH  21  22
ATOM     22  C   UNL     1      -4.651   0.605 -30.454  1.00  0.00    -0.021 A 
ATOM     23  C   UNL     1      -4.523   1.751 -29.651  1.00  0.00     0.058 A 
ATOM     24  C   UNL     1      -3.728  -0.443 -30.308  1.00  0.00     0.012 A 
ATOM     25  C   UNL     1      -3.474   1.839 -28.742  1.00  0.00     0.157 A 
ATOM     26  C   UNL     1      -2.674  -0.343 -29.396  1.00  0.00     0.051 A 
ATOM     27  C   UNL     1      -2.557   0.800 -28.621  1.00  0.00     0.157 A 
BRANCH  25  28
ATOM     28  O   UNL     1      -3.305   2.930 -27.936  1.00  0.00    -0.504 OA
ATOM     29  H   UNL     1      -4.180   3.216 -27.619  1.00  0.00     0.293 HD
ENDBRANCH  25  28
BRANCH  27  30
ATOM     30  O   UNL     1      -1.532   0.894 -27.724  1.00  0.00    -0.504 OA
ATOM     31  H   UNL     1      -1.366  -0.029 -27.443  1.00  0.00     0.293 HD
ENDBRANCH  27  30
ENDBRANCH  21  22
ENDBRANCH  18  20
ENDBRANCH   1  18
TORSDOF 12
ENDMDL
