MODEL 1
REMARK VINA RESULT:      -8.9      0.000      0.000
REMARK SMILES O=C(/C=C/c1ccc(O)c(O)c1)O[C@@H]1[C@H](O)C[C@@](O)(C(=O)O)C[C@H]1OC(=O)/C=C/c1ccc(O)c(O)c1
REMARK SMILES IDX 17 1 15 2 14 3 24 4 23 5 18 6 16 7 19 9 20 11 21 12 22 13
REMARK SMILES IDX 13 15 2 16 1 17 3 18 4 19 5 20 12 21 6 22 10 23 7 24 8 25
REMARK SMILES IDX 11 26 9 28 25 30 26 31 27 32 28 33 29 34 30 35 37 36 31 37
REMARK SMILES IDX 35 38 32 39 33 40 36 41 34 43
REMARK H PARENT 16 8 19 10 22 14 11 27 9 29 36 42 34 44
ROOT
ATOM      1  C   UNL     1      -8.473  -2.050 -20.740  1.00  0.00     0.083 C 
ATOM      2  C   UNL     1      -7.630  -2.415 -21.959  1.00  0.00     0.162 C 
ATOM      3  C   UNL     1      -7.555  -1.247 -22.957  1.00  0.00     0.246 C 
ATOM      4  C   UNL     1      -8.964  -0.795 -23.392  1.00  0.00     0.223 C 
ATOM      5  C   UNL     1      -9.831  -0.454 -22.175  1.00  0.00     0.097 C 
ATOM      6  C   UNL     1      -9.879  -1.592 -21.154  1.00  0.00     0.168 C 
ENDROOT
BRANCH   2   7
ATOM      7  O   UNL     1      -8.246  -3.555 -22.582  1.00  0.00    -0.389 OA
ATOM      8  H   UNL     1      -7.643  -3.836 -23.300  1.00  0.00     0.211 HD
ENDBRANCH   2   7
BRANCH   6   9
ATOM      9  O   UNL     1     -10.626  -2.690 -21.718  1.00  0.00    -0.378 OA
ATOM     10  H   UNL     1     -11.394  -2.301 -22.200  1.00  0.00     0.212 HD
ENDBRANCH   6   9
BRANCH   6  11
ATOM     11  C   UNL     1     -10.643  -1.127 -19.906  1.00  0.00     0.335 C 
ATOM     12  O   UNL     1     -10.727  -1.753 -18.861  1.00  0.00    -0.249 OA
BRANCH  11  13
ATOM     13  O   UNL     1     -11.218   0.088 -20.098  1.00  0.00    -0.479 OA
ATOM     14  H   UNL     1     -11.111   0.591 -19.253  1.00  0.00     0.296 HD
ENDBRANCH  11  13
ENDBRANCH   6  11
BRANCH   3  15
ATOM     15  O   UNL     1      -6.832  -1.683 -24.130  1.00  0.00    -0.452 OA
BRANCH  15  16
ATOM     16  C   UNL     1      -5.758  -0.935 -24.475  1.00  0.00     0.331 C 
ATOM     17  O   UNL     1      -5.152  -0.167 -23.748  1.00  0.00    -0.247 OA
BRANCH  16  18
ATOM     18  C   UNL     1      -5.441  -1.219 -25.888  1.00  0.00     0.094 C 
ATOM     19  C   UNL     1      -4.450  -0.549 -26.496  1.00  0.00     0.016 C 
BRANCH  19  20
ATOM     20  C   UNL     1      -4.053  -0.760 -27.895  1.00  0.00    -0.021 A 
ATOM     21  C   UNL     1      -2.925  -0.080 -28.384  1.00  0.00     0.058 A 
ATOM     22  C   UNL     1      -4.793  -1.574 -28.770  1.00  0.00     0.012 A 
ATOM     23  C   UNL     1      -2.542  -0.241 -29.712  1.00  0.00     0.157 A 
ATOM     24  C   UNL     1      -4.401  -1.730 -30.103  1.00  0.00     0.051 A 
ATOM     25  C   UNL     1      -3.277  -1.063 -30.562  1.00  0.00     0.157 A 
BRANCH  23  26
ATOM     26  O   UNL     1      -1.447   0.392 -30.232  1.00  0.00    -0.504 OA
ATOM     27  H   UNL     1      -0.652   0.029 -29.804  1.00  0.00     0.293 HD
ENDBRANCH  23  26
BRANCH  25  28
ATOM     28  O   UNL     1      -2.895  -1.215 -31.863  1.00  0.00    -0.504 OA
ATOM     29  H   UNL     1      -2.021  -1.649 -31.815  1.00  0.00     0.293 HD
ENDBRANCH  25  28
ENDBRANCH  19  20
ENDBRANCH  16  18
ENDBRANCH  15  16
ENDBRANCH   3  15
BRANCH   4  30
ATOM     30  O   UNL     1      -8.858   0.418 -24.176  1.00  0.00    -0.455 OA
BRANCH  30  31
ATOM     31  C   UNL     1      -9.249   0.344 -25.471  1.00  0.00     0.331 C 
ATOM     32  O   UNL     1     -10.279  -0.164 -25.889  1.00  0.00    -0.247 OA
BRANCH  31  33
ATOM     33  C   UNL     1      -8.259   0.960 -26.378  1.00  0.00     0.094 C 
ATOM     34  C   UNL     1      -8.080   0.605 -27.660  1.00  0.00     0.016 C 
BRANCH  34  35
ATOM     35  C   UNL     1      -7.099   1.250 -28.544  1.00  0.00    -0.021 A 
ATOM     36  C   UNL     1      -6.209   2.188 -27.997  1.00  0.00     0.058 A 
ATOM     37  C   UNL     1      -7.064   0.993 -29.926  1.00  0.00     0.012 A 
ATOM     38  C   UNL     1      -5.288   2.826 -28.823  1.00  0.00     0.157 A 
ATOM     39  C   UNL     1      -6.137   1.641 -30.747  1.00  0.00     0.051 A 
ATOM     40  C   UNL     1      -5.255   2.550 -30.187  1.00  0.00     0.157 A 
BRANCH  38  41
ATOM     41  O   UNL     1      -4.392   3.738 -28.338  1.00  0.00    -0.504 OA
ATOM     42  H   UNL     1      -3.832   4.038 -29.074  1.00  0.00     0.293 HD
ENDBRANCH  38  41
BRANCH  40  43
ATOM     43  O   UNL     1      -4.351   3.181 -30.989  1.00  0.00    -0.504 OA
ATOM     44  H   UNL     1      -3.815   3.725 -30.376  1.00  0.00     0.293 HD
ENDBRANCH  40  43
ENDBRANCH  34  35
ENDBRANCH  31  33
ENDBRANCH  30  31
ENDBRANCH   4  30
TORSDOF 16
ENDMDL
MODEL 2
REMARK VINA RESULT:      -8.9      1.926      2.948
REMARK SMILES O=C(/C=C/c1ccc(O)c(O)c1)O[C@@H]1[C@H](O)C[C@@](O)(C(=O)O)C[C@H]1OC(=O)/C=C/c1ccc(O)c(O)c1
REMARK SMILES IDX 17 1 15 2 14 3 24 4 23 5 18 6 16 7 19 9 20 11 21 12 22 13
REMARK SMILES IDX 13 15 2 16 1 17 3 18 4 19 5 20 12 21 6 22 10 23 7 24 8 25
REMARK SMILES IDX 11 26 9 28 25 30 26 31 27 32 28 33 29 34 30 35 37 36 31 37
REMARK SMILES IDX 35 38 32 39 33 40 36 41 34 43
REMARK H PARENT 16 8 19 10 22 14 11 27 9 29 36 42 34 44
ROOT
ATOM      1  C   UNL     1      -8.491  -2.175 -20.899  1.00  0.00     0.083 C 
ATOM      2  C   UNL     1      -7.619  -2.506 -22.107  1.00  0.00     0.162 C 
ATOM      3  C   UNL     1      -7.282  -1.242 -22.917  1.00  0.00     0.246 C 
ATOM      4  C   UNL     1      -8.564  -0.509 -23.361  1.00  0.00     0.223 C 
ATOM      5  C   UNL     1      -9.464  -0.197 -22.161  1.00  0.00     0.097 C 
ATOM      6  C   UNL     1      -9.770  -1.439 -21.322  1.00  0.00     0.168 C 
ENDROOT
BRANCH   2   7
ATOM      7  O   UNL     1      -8.352  -3.433 -22.925  1.00  0.00    -0.389 OA
ATOM      8  H   UNL     1      -7.742  -3.712 -23.639  1.00  0.00     0.211 HD
ENDBRANCH   2   7
BRANCH   6   9
ATOM      9  O   UNL     1     -10.631  -2.313 -22.084  1.00  0.00    -0.378 OA
ATOM     10  H   UNL     1     -10.479  -3.229 -21.751  1.00  0.00     0.212 HD
ENDBRANCH   6   9
BRANCH   6  11
ATOM     11  C   UNL     1     -10.551  -1.028 -20.066  1.00  0.00     0.335 C 
ATOM     12  O   UNL     1     -10.570  -1.650 -19.015  1.00  0.00    -0.249 OA
BRANCH  11  13
ATOM     13  O   UNL     1     -11.226   0.135 -20.257  1.00  0.00    -0.479 OA
ATOM     14  H   UNL     1     -11.603   0.394 -19.380  1.00  0.00     0.296 HD
ENDBRANCH  11  13
ENDBRANCH   6  11
BRANCH   3  15
ATOM     15  O   UNL     1      -6.543  -1.629 -24.097  1.00  0.00    -0.452 OA
BRANCH  15  16
ATOM     16  C   UNL     1      -5.493  -0.840 -24.422  1.00  0.00     0.331 C 
ATOM     17  O   UNL     1      -4.965  -0.011 -23.701  1.00  0.00    -0.247 OA
BRANCH  16  18
ATOM     18  C   UNL     1      -5.091  -1.164 -25.804  1.00  0.00     0.094 C 
ATOM     19  C   UNL     1      -4.582  -0.205 -26.593  1.00  0.00     0.016 C 
BRANCH  19  20
ATOM     20  C   UNL     1      -4.147  -0.426 -27.980  1.00  0.00    -0.021 A 
ATOM     21  C   UNL     1      -4.148   0.664 -28.865  1.00  0.00     0.058 A 
ATOM     22  C   UNL     1      -3.786  -1.697 -28.459  1.00  0.00     0.012 A 
ATOM     23  C   UNL     1      -3.765   0.478 -30.190  1.00  0.00     0.157 A 
ATOM     24  C   UNL     1      -3.404  -1.875 -29.792  1.00  0.00     0.051 A 
ATOM     25  C   UNL     1      -3.395  -0.784 -30.646  1.00  0.00     0.157 A 
BRANCH  23  26
ATOM     26  O   UNL     1      -3.740   1.510 -31.089  1.00  0.00    -0.504 OA
ATOM     27  H   UNL     1      -3.210   1.233 -31.857  1.00  0.00     0.293 HD
ENDBRANCH  23  26
BRANCH  25  28
ATOM     28  O   UNL     1      -3.023  -0.958 -31.947  1.00  0.00    -0.504 OA
ATOM     29  H   UNL     1      -2.876  -1.920 -32.035  1.00  0.00     0.293 HD
ENDBRANCH  25  28
ENDBRANCH  19  20
ENDBRANCH  16  18
ENDBRANCH  15  16
ENDBRANCH   3  15
BRANCH   4  30
ATOM     30  O   UNL     1      -8.209   0.764 -23.952  1.00  0.00    -0.455 OA
BRANCH  30  31
ATOM     31  C   UNL     1      -8.846   1.106 -25.097  1.00  0.00     0.331 C 
ATOM     32  O   UNL     1      -9.411   2.166 -25.324  1.00  0.00    -0.247 OA
BRANCH  31  33
ATOM     33  C   UNL     1      -8.799   0.019 -26.097  1.00  0.00     0.094 C 
ATOM     34  C   UNL     1      -8.062   0.051 -27.219  1.00  0.00     0.016 C 
BRANCH  34  35
ATOM     35  C   UNL     1      -8.021  -1.054 -28.186  1.00  0.00    -0.021 A 
ATOM     36  C   UNL     1      -8.418  -2.334 -27.767  1.00  0.00     0.058 A 
ATOM     37  C   UNL     1      -7.547  -0.875 -29.497  1.00  0.00     0.012 A 
ATOM     38  C   UNL     1      -8.364  -3.398 -28.663  1.00  0.00     0.157 A 
ATOM     39  C   UNL     1      -7.495  -1.950 -30.388  1.00  0.00     0.051 A 
ATOM     40  C   UNL     1      -7.907  -3.202 -29.963  1.00  0.00     0.157 A 
BRANCH  38  41
ATOM     41  O   UNL     1      -8.749  -4.662 -28.310  1.00  0.00    -0.504 OA
ATOM     42  H   UNL     1      -9.361  -4.596 -27.556  1.00  0.00     0.293 HD
ENDBRANCH  38  41
BRANCH  40  43
ATOM     43  O   UNL     1      -7.855  -4.252 -30.834  1.00  0.00    -0.504 OA
ATOM     44  H   UNL     1      -7.611  -5.020 -30.279  1.00  0.00     0.293 HD
ENDBRANCH  40  43
ENDBRANCH  34  35
ENDBRANCH  31  33
ENDBRANCH  30  31
ENDBRANCH   4  30
TORSDOF 16
ENDMDL
MODEL 3
REMARK VINA RESULT:      -8.9      1.154      3.781
REMARK SMILES O=C(/C=C/c1ccc(O)c(O)c1)O[C@@H]1[C@H](O)C[C@@](O)(C(=O)O)C[C@H]1OC(=O)/C=C/c1ccc(O)c(O)c1
REMARK SMILES IDX 17 1 15 2 14 3 24 4 23 5 18 6 16 7 19 9 20 11 21 12 22 13
REMARK SMILES IDX 13 15 2 16 1 17 3 18 4 19 5 20 12 21 6 22 10 23 7 24 8 25
REMARK SMILES IDX 11 26 9 28 25 30 26 31 27 32 28 33 29 34 30 35 37 36 31 37
REMARK SMILES IDX 35 38 32 39 33 40 36 41 34 43
REMARK H PARENT 16 8 19 10 22 14 11 27 9 29 36 42 34 44
ROOT
ATOM      1  C   UNL     1     -10.527  -2.452 -22.801  1.00  0.00     0.083 C 
ATOM      2  C   UNL     1     -10.462  -1.579 -24.052  1.00  0.00     0.162 C 
ATOM      3  C   UNL     1      -9.098  -1.707 -24.752  1.00  0.00     0.246 C 
ATOM      4  C   UNL     1      -7.944  -1.358 -23.790  1.00  0.00     0.223 C 
ATOM      5  C   UNL     1      -8.016  -2.206 -22.516  1.00  0.00     0.097 C 
ATOM      6  C   UNL     1      -9.381  -2.122 -21.833  1.00  0.00     0.168 C 
ENDROOT
BRANCH   2   7
ATOM      7  O   UNL     1     -10.677  -0.220 -23.639  1.00  0.00    -0.389 OA
ATOM      8  H   UNL     1     -11.624  -0.151 -23.401  1.00  0.00     0.211 HD
ENDBRANCH   2   7
BRANCH   6   9
ATOM      9  O   UNL     1      -9.546  -0.797 -21.284  1.00  0.00    -0.378 OA
ATOM     10  H   UNL     1      -9.833  -0.907 -20.346  1.00  0.00     0.212 HD
ENDBRANCH   6   9
BRANCH   6  11
ATOM     11  C   UNL     1      -9.425  -3.103 -20.653  1.00  0.00     0.335 C 
ATOM     12  O   UNL     1      -9.818  -2.833 -19.528  1.00  0.00    -0.249 OA
BRANCH  11  13
ATOM     13  O   UNL     1      -8.974  -4.333 -21.010  1.00  0.00    -0.479 OA
ATOM     14  H   UNL     1      -9.761  -4.846 -21.322  1.00  0.00     0.296 HD
ENDBRANCH  11  13
ENDBRANCH   6  11
BRANCH   3  15
ATOM     15  O   UNL     1      -9.059  -0.787 -25.866  1.00  0.00    -0.452 OA
BRANCH  15  16
ATOM     16  C   UNL     1      -9.218  -1.336 -27.092  1.00  0.00     0.331 C 
ATOM     17  O   UNL     1     -10.054  -2.166 -27.406  1.00  0.00    -0.247 OA
BRANCH  16  18
ATOM     18  C   UNL     1      -8.205  -0.748 -27.989  1.00  0.00     0.094 C 
ATOM     19  C   UNL     1      -7.916   0.559 -27.901  1.00  0.00     0.016 C 
BRANCH  19  20
ATOM     20  C   UNL     1      -6.920   1.240 -28.743  1.00  0.00    -0.021 A 
ATOM     21  C   UNL     1      -5.964   2.060 -28.122  1.00  0.00     0.058 A 
ATOM     22  C   UNL     1      -6.930   1.139 -30.145  1.00  0.00     0.012 A 
ATOM     23  C   UNL     1      -5.027   2.736 -28.897  1.00  0.00     0.157 A 
ATOM     24  C   UNL     1      -5.984   1.823 -30.915  1.00  0.00     0.051 A 
ATOM     25  C   UNL     1      -5.039   2.614 -30.283  1.00  0.00     0.157 A 
BRANCH  23  26
ATOM     26  O   UNL     1      -4.069   3.539 -28.340  1.00  0.00    -0.504 OA
ATOM     27  H   UNL     1      -4.513   4.293 -27.915  1.00  0.00     0.293 HD
ENDBRANCH  23  26
BRANCH  25  28
ATOM     28  O   UNL     1      -4.117   3.281 -31.036  1.00  0.00    -0.504 OA
ATOM     29  H   UNL     1      -3.326   2.707 -31.024  1.00  0.00     0.293 HD
ENDBRANCH  25  28
ENDBRANCH  19  20
ENDBRANCH  16  18
ENDBRANCH  15  16
ENDBRANCH   3  15
BRANCH   4  30
ATOM     30  O   UNL     1      -6.680  -1.670 -24.423  1.00  0.00    -0.455 OA
BRANCH  30  31
ATOM     31  C   UNL     1      -5.764  -0.675 -24.482  1.00  0.00     0.331 C 
ATOM     32  O   UNL     1      -5.392   0.024 -23.550  1.00  0.00    -0.247 OA
BRANCH  31  33
ATOM     33  C   UNL     1      -5.232  -0.499 -25.849  1.00  0.00     0.094 C 
ATOM     34  C   UNL     1      -4.806  -1.502 -26.632  1.00  0.00     0.016 C 
BRANCH  34  35
ATOM     35  C   UNL     1      -4.299  -1.297 -27.997  1.00  0.00    -0.021 A 
ATOM     36  C   UNL     1      -3.183  -0.466 -28.186  1.00  0.00     0.058 A 
ATOM     37  C   UNL     1      -4.930  -1.868 -29.116  1.00  0.00     0.012 A 
ATOM     38  C   UNL     1      -2.703  -0.243 -29.473  1.00  0.00     0.157 A 
ATOM     39  C   UNL     1      -4.441  -1.635 -30.404  1.00  0.00     0.051 A 
ATOM     40  C   UNL     1      -3.329  -0.826 -30.570  1.00  0.00     0.157 A 
BRANCH  38  41
ATOM     41  O   UNL     1      -1.613   0.549 -29.711  1.00  0.00    -0.504 OA
ATOM     42  H   UNL     1      -1.254   0.841 -28.856  1.00  0.00     0.293 HD
ENDBRANCH  38  41
BRANCH  40  43
ATOM     43  O   UNL     1      -2.852  -0.600 -31.828  1.00  0.00    -0.504 OA
ATOM     44  H   UNL     1      -3.653  -0.533 -32.387  1.00  0.00     0.293 HD
ENDBRANCH  40  43
ENDBRANCH  34  35
ENDBRANCH  31  33
ENDBRANCH  30  31
ENDBRANCH   4  30
TORSDOF 16
ENDMDL
MODEL 4
REMARK VINA RESULT:      -8.9      2.146      4.152
REMARK SMILES O=C(/C=C/c1ccc(O)c(O)c1)O[C@@H]1[C@H](O)C[C@@](O)(C(=O)O)C[C@H]1OC(=O)/C=C/c1ccc(O)c(O)c1
REMARK SMILES IDX 17 1 15 2 14 3 24 4 23 5 18 6 16 7 19 9 20 11 21 12 22 13
REMARK SMILES IDX 13 15 2 16 1 17 3 18 4 19 5 20 12 21 6 22 10 23 7 24 8 25
REMARK SMILES IDX 11 26 9 28 25 30 26 31 27 32 28 33 29 34 30 35 37 36 31 37
REMARK SMILES IDX 35 38 32 39 33 40 36 41 34 43
REMARK H PARENT 16 8 19 10 22 14 11 27 9 29 36 42 34 44
ROOT
ATOM      1  C   UNL     1      -9.926  -1.607 -22.310  1.00  0.00     0.083 C 
ATOM      2  C   UNL     1      -9.589  -0.220 -22.851  1.00  0.00     0.162 C 
ATOM      3  C   UNL     1      -8.430  -0.279 -23.860  1.00  0.00     0.246 C 
ATOM      4  C   UNL     1      -7.180  -0.931 -23.234  1.00  0.00     0.223 C 
ATOM      5  C   UNL     1      -7.511  -2.312 -22.659  1.00  0.00     0.097 C 
ATOM      6  C   UNL     1      -8.691  -2.275 -21.687  1.00  0.00     0.168 C 
ENDROOT
BRANCH   2   7
ATOM      7  O   UNL     1      -9.224   0.601 -21.730  1.00  0.00    -0.389 OA
ATOM      8  H   UNL     1      -8.657   1.316 -22.084  1.00  0.00     0.211 HD
ENDBRANCH   2   7
BRANCH   6   9
ATOM      9  O   UNL     1      -8.285  -1.576 -20.491  1.00  0.00    -0.378 OA
ATOM     10  H   UNL     1      -8.896  -0.808 -20.384  1.00  0.00     0.212 HD
ENDBRANCH   6   9
BRANCH   6  11
ATOM     11  C   UNL     1      -9.053  -3.706 -21.267  1.00  0.00     0.335 C 
ATOM     12  O   UNL     1      -8.970  -4.692 -21.983  1.00  0.00    -0.249 OA
BRANCH  11  13
ATOM     13  O   UNL     1      -9.478  -3.754 -19.978  1.00  0.00    -0.479 OA
ATOM     14  H   UNL     1     -10.463  -3.664 -19.998  1.00  0.00     0.296 HD
ENDBRANCH  11  13
ENDBRANCH   6  11
BRANCH   3  15
ATOM     15  O   UNL     1      -8.092   1.068 -24.259  1.00  0.00    -0.452 OA
BRANCH  15  16
ATOM     16  C   UNL     1      -8.529   1.450 -25.481  1.00  0.00     0.331 C 
ATOM     17  O   UNL     1      -8.803   2.587 -25.825  1.00  0.00    -0.247 OA
BRANCH  16  18
ATOM     18  C   UNL     1      -8.610   0.248 -26.332  1.00  0.00     0.094 C 
ATOM     19  C   UNL     1      -7.947   0.210 -27.498  1.00  0.00     0.016 C 
BRANCH  19  20
ATOM     20  C   UNL     1      -7.959  -0.940 -28.413  1.00  0.00    -0.021 A 
ATOM     21  C   UNL     1      -8.281  -2.206 -27.898  1.00  0.00     0.058 A 
ATOM     22  C   UNL     1      -7.605  -0.823 -29.769  1.00  0.00     0.012 A 
ATOM     23  C   UNL     1      -8.274  -3.316 -28.737  1.00  0.00     0.157 A 
ATOM     24  C   UNL     1      -7.601  -1.944 -30.605  1.00  0.00     0.051 A 
ATOM     25  C   UNL     1      -7.938  -3.181 -30.080  1.00  0.00     0.157 A 
BRANCH  23  26
ATOM     26  O   UNL     1      -8.590  -4.568 -28.285  1.00  0.00    -0.504 OA
ATOM     27  H   UNL     1      -9.500  -4.549 -27.941  1.00  0.00     0.293 HD
ENDBRANCH  23  26
BRANCH  25  28
ATOM     28  O   UNL     1      -7.932  -4.275 -30.896  1.00  0.00    -0.504 OA
ATOM     29  H   UNL     1      -7.944  -3.907 -31.802  1.00  0.00     0.293 HD
ENDBRANCH  25  28
ENDBRANCH  19  20
ENDBRANCH  16  18
ENDBRANCH  15  16
ENDBRANCH   3  15
BRANCH   4  30
ATOM     30  O   UNL     1      -6.182  -1.139 -24.261  1.00  0.00    -0.455 OA
BRANCH  30  31
ATOM     31  C   UNL     1      -5.238  -0.177 -24.400  1.00  0.00     0.331 C 
ATOM     32  O   UNL     1      -4.785   0.528 -23.510  1.00  0.00    -0.247 OA
BRANCH  31  33
ATOM     33  C   UNL     1      -4.790  -0.048 -25.801  1.00  0.00     0.094 C 
ATOM     34  C   UNL     1      -4.628  -1.080 -26.645  1.00  0.00     0.016 C 
BRANCH  34  35
ATOM     35  C   UNL     1      -4.198  -0.919 -28.041  1.00  0.00    -0.021 A 
ATOM     36  C   UNL     1      -4.204   0.366 -28.606  1.00  0.00     0.058 A 
ATOM     37  C   UNL     1      -3.832  -2.019 -28.836  1.00  0.00     0.012 A 
ATOM     38  C   UNL     1      -3.822   0.536 -29.933  1.00  0.00     0.157 A 
ATOM     39  C   UNL     1      -3.452  -1.838 -30.168  1.00  0.00     0.051 A 
ATOM     40  C   UNL     1      -3.447  -0.561 -30.704  1.00  0.00     0.157 A 
BRANCH  38  41
ATOM     41  O   UNL     1      -3.799   1.767 -30.529  1.00  0.00    -0.504 OA
ATOM     42  H   UNL     1      -2.955   1.863 -31.002  1.00  0.00     0.293 HD
ENDBRANCH  38  41
BRANCH  40  43
ATOM     43  O   UNL     1      -3.076  -0.386 -32.005  1.00  0.00    -0.504 OA
ATOM     44  H   UNL     1      -3.379   0.517 -32.229  1.00  0.00     0.293 HD
ENDBRANCH  40  43
ENDBRANCH  34  35
ENDBRANCH  31  33
ENDBRANCH  30  31
ENDBRANCH   4  30
TORSDOF 16
ENDMDL
MODEL 5
REMARK VINA RESULT:      -8.9      2.515      4.814
REMARK SMILES O=C(/C=C/c1ccc(O)c(O)c1)O[C@@H]1[C@H](O)C[C@@](O)(C(=O)O)C[C@H]1OC(=O)/C=C/c1ccc(O)c(O)c1
REMARK SMILES IDX 17 1 15 2 14 3 24 4 23 5 18 6 16 7 19 9 20 11 21 12 22 13
REMARK SMILES IDX 13 15 2 16 1 17 3 18 4 19 5 20 12 21 6 22 10 23 7 24 8 25
REMARK SMILES IDX 11 26 9 28 25 30 26 31 27 32 28 33 29 34 30 35 37 36 31 37
REMARK SMILES IDX 35 38 32 39 33 40 36 41 34 43
REMARK H PARENT 16 8 19 10 22 14 11 27 9 29 36 42 34 44
ROOT
ATOM      1  C   UNL     1     -10.641  -2.674 -22.708  1.00  0.00     0.083 C 
ATOM      2  C   UNL     1     -10.561  -2.097 -24.119  1.00  0.00     0.162 C 
ATOM      3  C   UNL     1      -9.137  -2.209 -24.689  1.00  0.00     0.246 C 
ATOM      4  C   UNL     1      -8.112  -1.519 -23.765  1.00  0.00     0.223 C 
ATOM      5  C   UNL     1      -8.203  -2.067 -22.338  1.00  0.00     0.097 C 
ATOM      6  C   UNL     1      -9.623  -2.002 -21.775  1.00  0.00     0.168 C 
ENDROOT
BRANCH   2   7
ATOM      7  O   UNL     1     -10.953  -0.717 -24.042  1.00  0.00    -0.389 OA
ATOM      8  H   UNL     1     -11.137  -0.535 -23.097  1.00  0.00     0.211 HD
ENDBRANCH   2   7
BRANCH   6   9
ATOM      9  O   UNL     1      -9.972  -0.619 -21.554  1.00  0.00    -0.378 OA
ATOM     10  H   UNL     1      -9.611  -0.105 -22.316  1.00  0.00     0.212 HD
ENDBRANCH   6   9
BRANCH   6  11
ATOM     11  C   UNL     1      -9.664  -2.696 -20.406  1.00  0.00     0.335 C 
ATOM     12  O   UNL     1     -10.191  -2.241 -19.403  1.00  0.00    -0.249 OA
BRANCH  11  13
ATOM     13  O   UNL     1      -9.042  -3.902 -20.440  1.00  0.00    -0.479 OA
ATOM     14  H   UNL     1      -9.575  -4.515 -19.876  1.00  0.00     0.296 HD
ENDBRANCH  11  13
ENDBRANCH   6  11
BRANCH   3  15
ATOM     15  O   UNL     1      -9.100  -1.560 -25.980  1.00  0.00    -0.452 OA
BRANCH  15  16
ATOM     16  C   UNL     1      -9.395  -2.342 -27.044  1.00  0.00     0.331 C 
ATOM     17  O   UNL     1      -9.345  -3.559 -27.078  1.00  0.00    -0.247 OA
BRANCH  16  18
ATOM     18  C   UNL     1      -9.798  -1.462 -28.157  1.00  0.00     0.094 C 
ATOM     19  C   UNL     1      -8.877  -1.032 -29.033  1.00  0.00     0.016 C 
BRANCH  19  20
ATOM     20  C   UNL     1      -9.175  -0.158 -30.178  1.00  0.00    -0.021 A 
ATOM     21  C   UNL     1     -10.193  -0.540 -31.067  1.00  0.00     0.058 A 
ATOM     22  C   UNL     1      -8.441   1.012 -30.439  1.00  0.00     0.012 A 
ATOM     23  C   UNL     1     -10.478   0.255 -32.173  1.00  0.00     0.157 A 
ATOM     24  C   UNL     1      -8.735   1.805 -31.552  1.00  0.00     0.051 A 
ATOM     25  C   UNL     1      -9.753   1.420 -32.408  1.00  0.00     0.157 A 
BRANCH  23  26
ATOM     26  O   UNL     1     -11.466  -0.068 -33.062  1.00  0.00    -0.504 OA
ATOM     27  H   UNL     1     -12.073   0.689 -33.134  1.00  0.00     0.293 HD
ENDBRANCH  23  26
BRANCH  25  28
ATOM     28  O   UNL     1     -10.039   2.194 -33.496  1.00  0.00    -0.504 OA
ATOM     29  H   UNL     1     -11.008   2.316 -33.464  1.00  0.00     0.293 HD
ENDBRANCH  25  28
ENDBRANCH  19  20
ENDBRANCH  16  18
ENDBRANCH  15  16
ENDBRANCH   3  15
BRANCH   4  30
ATOM     30  O   UNL     1      -6.773  -1.807 -24.234  1.00  0.00    -0.455 OA
BRANCH  30  31
ATOM     31  C   UNL     1      -5.992  -0.745 -24.542  1.00  0.00     0.331 C 
ATOM     32  O   UNL     1      -5.649   0.148 -23.781  1.00  0.00    -0.247 OA
BRANCH  31  33
ATOM     33  C   UNL     1      -5.576  -0.762 -25.959  1.00  0.00     0.094 C 
ATOM     34  C   UNL     1      -4.450  -0.201 -26.427  1.00  0.00     0.016 C 
BRANCH  34  35
ATOM     35  C   UNL     1      -4.053  -0.252 -27.841  1.00  0.00    -0.021 A 
ATOM     36  C   UNL     1      -5.029  -0.543 -28.807  1.00  0.00     0.058 A 
ATOM     37  C   UNL     1      -2.719  -0.068 -28.244  1.00  0.00     0.012 A 
ATOM     38  C   UNL     1      -4.668  -0.617 -30.149  1.00  0.00     0.157 A 
ATOM     39  C   UNL     1      -2.366  -0.147 -29.594  1.00  0.00     0.051 A 
ATOM     40  C   UNL     1      -3.345  -0.418 -30.535  1.00  0.00     0.157 A 
BRANCH  38  41
ATOM     41  O   UNL     1      -5.581  -0.886 -31.131  1.00  0.00    -0.504 OA
ATOM     42  H   UNL     1      -5.791  -0.055 -31.591  1.00  0.00     0.293 HD
ENDBRANCH  38  41
BRANCH  40  43
ATOM     43  O   UNL     1      -3.000  -0.494 -31.853  1.00  0.00    -0.504 OA
ATOM     44  H   UNL     1      -2.026  -0.593 -31.847  1.00  0.00     0.293 HD
ENDBRANCH  40  43
ENDBRANCH  34  35
ENDBRANCH  31  33
ENDBRANCH  30  31
ENDBRANCH   4  30
TORSDOF 16
ENDMDL
MODEL 6
REMARK VINA RESULT:      -8.9      2.972      4.913
REMARK SMILES O=C(/C=C/c1ccc(O)c(O)c1)O[C@@H]1[C@H](O)C[C@@](O)(C(=O)O)C[C@H]1OC(=O)/C=C/c1ccc(O)c(O)c1
REMARK SMILES IDX 17 1 15 2 14 3 24 4 23 5 18 6 16 7 19 9 20 11 21 12 22 13
REMARK SMILES IDX 13 15 2 16 1 17 3 18 4 19 5 20 12 21 6 22 10 23 7 24 8 25
REMARK SMILES IDX 11 26 9 28 25 30 26 31 27 32 28 33 29 34 30 35 37 36 31 37
REMARK SMILES IDX 35 38 32 39 33 40 36 41 34 43
REMARK H PARENT 16 8 19 10 22 14 11 27 9 29 36 42 34 44
ROOT
ATOM      1  C   UNL     1     -11.648  -3.659 -24.912  1.00  0.00     0.083 C 
ATOM      2  C   UNL     1     -10.493  -2.675 -24.745  1.00  0.00     0.162 C 
ATOM      3  C   UNL     1     -10.006  -2.147 -26.105  1.00  0.00     0.246 C 
ATOM      4  C   UNL     1      -9.597  -3.305 -27.037  1.00  0.00     0.223 C 
ATOM      5  C   UNL     1     -10.737  -4.317 -27.190  1.00  0.00     0.097 C 
ATOM      6  C   UNL     1     -11.259  -4.817 -25.843  1.00  0.00     0.168 C 
ENDROOT
BRANCH   2   7
ATOM      7  O   UNL     1      -9.427  -3.372 -24.078  1.00  0.00    -0.389 OA
ATOM      8  H   UNL     1      -9.404  -4.272 -24.463  1.00  0.00     0.211 HD
ENDBRANCH   2   7
BRANCH   6   9
ATOM      9  O   UNL     1     -10.247  -5.644 -25.230  1.00  0.00    -0.378 OA
ATOM     10  H   UNL     1     -10.717  -6.350 -24.725  1.00  0.00     0.212 HD
ENDBRANCH   6   9
BRANCH   6  11
ATOM     11  C   UNL     1     -12.487  -5.711 -26.070  1.00  0.00     0.335 C 
ATOM     12  O   UNL     1     -13.366  -5.920 -25.248  1.00  0.00    -0.249 OA
BRANCH  11  13
ATOM     13  O   UNL     1     -12.489  -6.246 -27.318  1.00  0.00    -0.479 OA
ATOM     14  H   UNL     1     -11.604  -6.052 -27.714  1.00  0.00     0.296 HD
ENDBRANCH  11  13
ENDBRANCH   6  11
BRANCH   3  15
ATOM     15  O   UNL     1      -8.853  -1.302 -25.891  1.00  0.00    -0.452 OA
BRANCH  15  16
ATOM     16  C   UNL     1      -9.086   0.031 -25.902  1.00  0.00     0.331 C 
ATOM     17  O   UNL     1     -10.036   0.600 -25.394  1.00  0.00    -0.247 OA
BRANCH  16  18
ATOM     18  C   UNL     1      -7.981   0.679 -26.633  1.00  0.00     0.094 C 
ATOM     19  C   UNL     1      -8.091   0.894 -27.954  1.00  0.00     0.016 C 
BRANCH  19  20
ATOM     20  C   UNL     1      -7.052   1.535 -28.772  1.00  0.00    -0.021 A 
ATOM     21  C   UNL     1      -6.032   2.251 -28.123  1.00  0.00     0.058 A 
ATOM     22  C   UNL     1      -7.076   1.502 -30.177  1.00  0.00     0.012 A 
ATOM     23  C   UNL     1      -5.050   2.890 -28.874  1.00  0.00     0.157 A 
ATOM     24  C   UNL     1      -6.086   2.147 -30.924  1.00  0.00     0.051 A 
ATOM     25  C   UNL     1      -5.080   2.834 -30.264  1.00  0.00     0.157 A 
BRANCH  23  26
ATOM     26  O   UNL     1      -4.032   3.591 -28.289  1.00  0.00    -0.504 OA
ATOM     27  H   UNL     1      -3.191   3.167 -28.530  1.00  0.00     0.293 HD
ENDBRANCH  23  26
BRANCH  25  28
ATOM     28  O   UNL     1      -4.114   3.464 -30.994  1.00  0.00    -0.504 OA
ATOM     29  H   UNL     1      -3.378   2.821 -31.037  1.00  0.00     0.293 HD
ENDBRANCH  25  28
ENDBRANCH  19  20
ENDBRANCH  16  18
ENDBRANCH  15  16
ENDBRANCH   3  15
BRANCH   4  30
ATOM     30  O   UNL     1      -9.327  -2.784 -28.361  1.00  0.00    -0.455 OA
BRANCH  30  31
ATOM     31  C   UNL     1      -8.199  -3.220 -28.971  1.00  0.00     0.331 C 
ATOM     32  O   UNL     1      -8.114  -4.152 -29.757  1.00  0.00    -0.247 OA
BRANCH  31  33
ATOM     33  C   UNL     1      -7.018  -2.427 -28.572  1.00  0.00     0.094 C 
ATOM     34  C   UNL     1      -6.011  -2.098 -29.397  1.00  0.00     0.016 C 
BRANCH  34  35
ATOM     35  C   UNL     1      -4.857  -1.291 -28.975  1.00  0.00    -0.021 A 
ATOM     36  C   UNL     1      -3.943  -0.859 -29.949  1.00  0.00     0.058 A 
ATOM     37  C   UNL     1      -4.619  -0.988 -27.624  1.00  0.00     0.012 A 
ATOM     38  C   UNL     1      -2.832  -0.114 -29.566  1.00  0.00     0.157 A 
ATOM     39  C   UNL     1      -3.499  -0.240 -27.249  1.00  0.00     0.051 A 
ATOM     40  C   UNL     1      -2.616   0.193 -28.225  1.00  0.00     0.157 A 
BRANCH  38  41
ATOM     41  O   UNL     1      -1.917   0.342 -30.475  1.00  0.00    -0.504 OA
ATOM     42  H   UNL     1      -1.962  -0.224 -31.265  1.00  0.00     0.293 HD
ENDBRANCH  38  41
BRANCH  40  43
ATOM     43  O   UNL     1      -1.523   0.923 -27.858  1.00  0.00    -0.504 OA
ATOM     44  H   UNL     1      -1.031   1.064 -28.692  1.00  0.00     0.293 HD
ENDBRANCH  40  43
ENDBRANCH  34  35
ENDBRANCH  31  33
ENDBRANCH  30  31
ENDBRANCH   4  30
TORSDOF 16
ENDMDL
MODEL 7
REMARK VINA RESULT:      -8.7      2.753      4.478
REMARK SMILES O=C(/C=C/c1ccc(O)c(O)c1)O[C@@H]1[C@H](O)C[C@@](O)(C(=O)O)C[C@H]1OC(=O)/C=C/c1ccc(O)c(O)c1
REMARK SMILES IDX 17 1 15 2 14 3 24 4 23 5 18 6 16 7 19 9 20 11 21 12 22 13
REMARK SMILES IDX 13 15 2 16 1 17 3 18 4 19 5 20 12 21 6 22 10 23 7 24 8 25
REMARK SMILES IDX 11 26 9 28 25 30 26 31 27 32 28 33 29 34 30 35 37 36 31 37
REMARK SMILES IDX 35 38 32 39 33 40 36 41 34 43
REMARK H PARENT 16 8 19 10 22 14 11 27 9 29 36 42 34 44
ROOT
ATOM      1  C   UNL     1     -10.549  -3.284 -22.722  1.00  0.00     0.083 C 
ATOM      2  C   UNL     1     -10.997  -3.184 -24.177  1.00  0.00     0.162 C 
ATOM      3  C   UNL     1      -9.829  -2.786 -25.096  1.00  0.00     0.246 C 
ATOM      4  C   UNL     1      -9.188  -1.461 -24.637  1.00  0.00     0.223 C 
ATOM      5  C   UNL     1      -8.761  -1.537 -23.168  1.00  0.00     0.097 C 
ATOM      6  C   UNL     1      -9.902  -1.974 -22.249  1.00  0.00     0.168 C 
ENDROOT
BRANCH   2   7
ATOM      7  O   UNL     1     -12.033  -2.191 -24.241  1.00  0.00    -0.389 OA
ATOM      8  H   UNL     1     -11.658  -1.432 -24.732  1.00  0.00     0.211 HD
ENDBRANCH   2   7
BRANCH   6   9
ATOM      9  O   UNL     1     -10.882  -0.916 -22.190  1.00  0.00    -0.378 OA
ATOM     10  H   UNL     1     -11.678  -1.231 -22.681  1.00  0.00     0.212 HD
ENDBRANCH   6   9
BRANCH   6  11
ATOM     11  C   UNL     1      -9.366  -2.166 -20.823  1.00  0.00     0.335 C 
ATOM     12  O   UNL     1      -8.712  -1.343 -20.201  1.00  0.00    -0.249 OA
BRANCH  11  13
ATOM     13  O   UNL     1      -9.717  -3.376 -20.318  1.00  0.00    -0.479 OA
ATOM     14  H   UNL     1     -10.281  -3.818 -21.000  1.00  0.00     0.296 HD
ENDBRANCH  11  13
ENDBRANCH   6  11
BRANCH   3  15
ATOM     15  O   UNL     1     -10.333  -2.610 -26.439  1.00  0.00    -0.452 OA
BRANCH  15  16
ATOM     16  C   UNL     1     -10.078  -3.620 -27.303  1.00  0.00     0.331 C 
ATOM     17  O   UNL     1     -10.186  -4.811 -27.071  1.00  0.00    -0.247 OA
BRANCH  16  18
ATOM     18  C   UNL     1      -9.652  -3.025 -28.584  1.00  0.00     0.094 C 
ATOM     19  C   UNL     1      -9.762  -1.701 -28.774  1.00  0.00     0.016 C 
BRANCH  19  20
ATOM     20  C   UNL     1      -9.362  -1.011 -30.009  1.00  0.00    -0.021 A 
ATOM     21  C   UNL     1     -10.339  -0.307 -30.732  1.00  0.00     0.058 A 
ATOM     22  C   UNL     1      -8.052  -1.078 -30.515  1.00  0.00     0.012 A 
ATOM     23  C   UNL     1      -9.993   0.333 -31.918  1.00  0.00     0.157 A 
ATOM     24  C   UNL     1      -7.714  -0.432 -31.707  1.00  0.00     0.051 A 
ATOM     25  C   UNL     1      -8.688   0.271 -32.397  1.00  0.00     0.157 A 
BRANCH  23  26
ATOM     26  O   UNL     1     -10.906   1.039 -32.653  1.00  0.00    -0.504 OA
ATOM     27  H   UNL     1     -10.502   1.261 -33.510  1.00  0.00     0.293 HD
ENDBRANCH  23  26
BRANCH  25  28
ATOM     28  O   UNL     1      -8.357   0.901 -33.562  1.00  0.00    -0.504 OA
ATOM     29  H   UNL     1      -7.394   1.054 -33.495  1.00  0.00     0.293 HD
ENDBRANCH  25  28
ENDBRANCH  19  20
ENDBRANCH  16  18
ENDBRANCH  15  16
ENDBRANCH   3  15
BRANCH   4  30
ATOM     30  O   UNL     1      -7.984  -1.219 -25.405  1.00  0.00    -0.455 OA
BRANCH  30  31
ATOM     31  C   UNL     1      -7.855   0.006 -25.970  1.00  0.00     0.331 C 
ATOM     32  O   UNL     1      -8.372   1.042 -25.579  1.00  0.00    -0.247 OA
BRANCH  31  33
ATOM     33  C   UNL     1      -6.993  -0.032 -27.169  1.00  0.00     0.094 C 
ATOM     34  C   UNL     1      -5.736  -0.502 -27.185  1.00  0.00     0.016 C 
BRANCH  34  35
ATOM     35  C   UNL     1      -4.908  -0.543 -28.399  1.00  0.00    -0.021 A 
ATOM     36  C   UNL     1      -4.896   0.575 -29.247  1.00  0.00     0.058 A 
ATOM     37  C   UNL     1      -4.173  -1.687 -28.756  1.00  0.00     0.012 A 
ATOM     38  C   UNL     1      -4.136   0.545 -30.413  1.00  0.00     0.157 A 
ATOM     39  C   UNL     1      -3.414  -1.708 -29.929  1.00  0.00     0.051 A 
ATOM     40  C   UNL     1      -3.401  -0.589 -30.746  1.00  0.00     0.157 A 
BRANCH  38  41
ATOM     41  O   UNL     1      -4.081   1.611 -31.268  1.00  0.00    -0.504 OA
ATOM     42  H   UNL     1      -3.153   1.893 -31.347  1.00  0.00     0.293 HD
ENDBRANCH  38  41
BRANCH  40  43
ATOM     43  O   UNL     1      -2.660  -0.610 -31.892  1.00  0.00    -0.504 OA
ATOM     44  H   UNL     1      -1.910  -0.007 -31.712  1.00  0.00     0.293 HD
ENDBRANCH  40  43
ENDBRANCH  34  35
ENDBRANCH  31  33
ENDBRANCH  30  31
ENDBRANCH   4  30
TORSDOF 16
ENDMDL
MODEL 8
REMARK VINA RESULT:      -8.7      2.386      3.186
REMARK SMILES O=C(/C=C/c1ccc(O)c(O)c1)O[C@@H]1[C@H](O)C[C@@](O)(C(=O)O)C[C@H]1OC(=O)/C=C/c1ccc(O)c(O)c1
REMARK SMILES IDX 17 1 15 2 14 3 24 4 23 5 18 6 16 7 19 9 20 11 21 12 22 13
REMARK SMILES IDX 13 15 2 16 1 17 3 18 4 19 5 20 12 21 6 22 10 23 7 24 8 25
REMARK SMILES IDX 11 26 9 28 25 30 26 31 27 32 28 33 29 34 30 35 37 36 31 37
REMARK SMILES IDX 35 38 32 39 33 40 36 41 34 43
REMARK H PARENT 16 8 19 10 22 14 11 27 9 29 36 42 34 44
ROOT
ATOM      1  C   UNL     1      -7.872  -1.586 -21.826  1.00  0.00     0.083 C 
ATOM      2  C   UNL     1      -7.317  -1.265 -23.211  1.00  0.00     0.162 C 
ATOM      3  C   UNL     1      -8.448  -1.000 -24.219  1.00  0.00     0.246 C 
ATOM      4  C   UNL     1      -9.419  -2.196 -24.292  1.00  0.00     0.223 C 
ATOM      5  C   UNL     1      -9.961  -2.549 -22.903  1.00  0.00     0.097 C 
ATOM      6  C   UNL     1      -8.846  -2.772 -21.880  1.00  0.00     0.168 C 
ENDROOT
BRANCH   2   7
ATOM      7  O   UNL     1      -6.536  -2.395 -23.634  1.00  0.00    -0.389 OA
ATOM      8  H   UNL     1      -6.084  -2.124 -24.459  1.00  0.00     0.211 HD
ENDBRANCH   2   7
BRANCH   6   9
ATOM      9  O   UNL     1      -8.147  -3.990 -22.213  1.00  0.00    -0.378 OA
ATOM     10  H   UNL     1      -7.182  -3.803 -22.123  1.00  0.00     0.212 HD
ENDBRANCH   6   9
BRANCH   6  11
ATOM     11  C   UNL     1      -9.462  -2.979 -20.489  1.00  0.00     0.335 C 
ATOM     12  O   UNL     1     -10.152  -2.162 -19.897  1.00  0.00    -0.249 OA
BRANCH  11  13
ATOM     13  O   UNL     1      -9.154  -4.201 -19.984  1.00  0.00    -0.479 OA
ATOM     14  H   UNL     1     -10.008  -4.684 -19.864  1.00  0.00     0.296 HD
ENDBRANCH  11  13
ENDBRANCH   6  11
BRANCH   3  15
ATOM     15  O   UNL     1      -7.868  -0.802 -25.528  1.00  0.00    -0.452 OA
BRANCH  15  16
ATOM     16  C   UNL     1      -7.799   0.480 -25.956  1.00  0.00     0.331 C 
ATOM     17  O   UNL     1      -8.342   1.441 -25.440  1.00  0.00    -0.247 OA
BRANCH  16  18
ATOM     18  C   UNL     1      -6.944   0.513 -27.158  1.00  0.00     0.094 C 
ATOM     19  C   UNL     1      -6.062  -0.475 -27.376  1.00  0.00     0.016 C 
BRANCH  19  20
ATOM     20  C   UNL     1      -5.170  -0.539 -28.542  1.00  0.00    -0.021 A 
ATOM     21  C   UNL     1      -5.117   0.566 -29.408  1.00  0.00     0.058 A 
ATOM     22  C   UNL     1      -4.414  -1.684 -28.847  1.00  0.00     0.012 A 
ATOM     23  C   UNL     1      -4.300   0.522 -30.534  1.00  0.00     0.157 A 
ATOM     24  C   UNL     1      -3.596  -1.719 -29.980  1.00  0.00     0.051 A 
ATOM     25  C   UNL     1      -3.545  -0.613 -30.813  1.00  0.00     0.157 A 
BRANCH  23  26
ATOM     26  O   UNL     1      -4.206   1.575 -31.403  1.00  0.00    -0.504 OA
ATOM     27  H   UNL     1      -4.270   1.229 -32.310  1.00  0.00     0.293 HD
ENDBRANCH  23  26
BRANCH  25  28
ATOM     28  O   UNL     1      -2.747  -0.648 -31.920  1.00  0.00    -0.504 OA
ATOM     29  H   UNL     1      -2.016  -1.250 -31.678  1.00  0.00     0.293 HD
ENDBRANCH  25  28
ENDBRANCH  19  20
ENDBRANCH  16  18
ENDBRANCH  15  16
ENDBRANCH   3  15
BRANCH   4  30
ATOM     30  O   UNL     1     -10.564  -1.837 -25.102  1.00  0.00    -0.455 OA
BRANCH  30  31
ATOM     31  C   UNL     1     -10.808  -2.605 -26.191  1.00  0.00     0.331 C 
ATOM     32  O   UNL     1     -11.244  -3.747 -26.189  1.00  0.00    -0.247 OA
BRANCH  31  33
ATOM     33  C   UNL     1     -10.474  -1.900 -27.445  1.00  0.00     0.094 C 
ATOM     34  C   UNL     1      -9.414  -2.186 -28.218  1.00  0.00     0.016 C 
BRANCH  34  35
ATOM     35  C   UNL     1      -9.118  -1.479 -29.472  1.00  0.00    -0.021 A 
ATOM     36  C   UNL     1     -10.002  -0.480 -29.909  1.00  0.00     0.058 A 
ATOM     37  C   UNL     1      -8.007  -1.811 -30.266  1.00  0.00     0.012 A 
ATOM     38  C   UNL     1      -9.750   0.185 -31.106  1.00  0.00     0.157 A 
ATOM     39  C   UNL     1      -7.764  -1.139 -31.467  1.00  0.00     0.051 A 
ATOM     40  C   UNL     1      -8.637  -0.144 -31.875  1.00  0.00     0.157 A 
BRANCH  38  41
ATOM     41  O   UNL     1     -10.573   1.174 -31.571  1.00  0.00    -0.504 OA
ATOM     42  H   UNL     1     -10.573   1.140 -32.543  1.00  0.00     0.293 HD
ENDBRANCH  38  41
BRANCH  40  43
ATOM     43  O   UNL     1      -8.400   0.511 -33.047  1.00  0.00    -0.504 OA
ATOM     44  H   UNL     1      -8.476  -0.180 -33.736  1.00  0.00     0.293 HD
ENDBRANCH  40  43
ENDBRANCH  34  35
ENDBRANCH  31  33
ENDBRANCH  30  31
ENDBRANCH   4  30
TORSDOF 16
ENDMDL
MODEL 9
REMARK VINA RESULT:      -8.5      3.628      8.332
REMARK SMILES O=C(/C=C/c1ccc(O)c(O)c1)O[C@@H]1[C@H](O)C[C@@](O)(C(=O)O)C[C@H]1OC(=O)/C=C/c1ccc(O)c(O)c1
REMARK SMILES IDX 17 1 15 2 14 3 24 4 23 5 18 6 16 7 19 9 20 11 21 12 22 13
REMARK SMILES IDX 13 15 2 16 1 17 3 18 4 19 5 20 12 21 6 22 10 23 7 24 8 25
REMARK SMILES IDX 11 26 9 28 25 30 26 31 27 32 28 33 29 34 30 35 37 36 31 37
REMARK SMILES IDX 35 38 32 39 33 40 36 41 34 43
REMARK H PARENT 16 8 19 10 22 14 11 27 9 29 36 42 34 44
ROOT
ATOM      1  C   UNL     1      -3.515   2.400 -28.938  1.00  0.00     0.083 C 
ATOM      2  C   UNL     1      -4.017   1.083 -28.352  1.00  0.00     0.162 C 
ATOM      3  C   UNL     1      -4.995   0.381 -29.310  1.00  0.00     0.246 C 
ATOM      4  C   UNL     1      -6.181   1.301 -29.665  1.00  0.00     0.223 C 
ATOM      5  C   UNL     1      -5.691   2.639 -30.226  1.00  0.00     0.097 C 
ATOM      6  C   UNL     1      -4.684   3.327 -29.303  1.00  0.00     0.168 C 
ENDROOT
BRANCH   2   7
ATOM      7  O   UNL     1      -4.677   1.388 -27.112  1.00  0.00    -0.389 OA
ATOM      8  H   UNL     1      -5.339   2.080 -27.315  1.00  0.00     0.211 HD
ENDBRANCH   2   7
BRANCH   6   9
ATOM      9  O   UNL     1      -5.372   3.769 -28.113  1.00  0.00    -0.378 OA
ATOM     10  H   UNL     1      -6.016   4.463 -28.393  1.00  0.00     0.212 HD
ENDBRANCH   6   9
BRANCH   6  11
ATOM     11  C   UNL     1      -4.132   4.582 -29.992  1.00  0.00     0.335 C 
ATOM     12  O   UNL     1      -4.748   5.278 -30.785  1.00  0.00    -0.249 OA
BRANCH  11  13
ATOM     13  O   UNL     1      -2.856   4.842 -29.605  1.00  0.00    -0.479 OA
ATOM     14  H   UNL     1      -2.734   5.822 -29.663  1.00  0.00     0.296 HD
ENDBRANCH  11  13
ENDBRANCH   6  11
BRANCH   3  15
ATOM     15  O   UNL     1      -5.512  -0.803 -28.662  1.00  0.00    -0.452 OA
BRANCH  15  16
ATOM     16  C   UNL     1      -5.642  -1.897 -29.448  1.00  0.00     0.331 C 
ATOM     17  O   UNL     1      -4.985  -2.152 -30.442  1.00  0.00    -0.247 OA
BRANCH  16  18
ATOM     18  C   UNL     1      -6.717  -2.736 -28.885  1.00  0.00     0.094 C 
ATOM     19  C   UNL     1      -7.730  -3.136 -29.669  1.00  0.00     0.016 C 
BRANCH  19  20
ATOM     20  C   UNL     1      -8.845  -3.975 -29.207  1.00  0.00    -0.021 A 
ATOM     21  C   UNL     1      -9.602  -4.672 -30.163  1.00  0.00     0.058 A 
ATOM     22  C   UNL     1      -9.211  -4.058 -27.853  1.00  0.00     0.012 A 
ATOM     23  C   UNL     1     -10.679  -5.454 -29.756  1.00  0.00     0.157 A 
ATOM     24  C   UNL     1     -10.294  -4.846 -27.452  1.00  0.00     0.051 A 
ATOM     25  C   UNL     1     -11.018  -5.539 -28.409  1.00  0.00     0.157 A 
BRANCH  23  26
ATOM     26  O   UNL     1     -11.440  -6.160 -30.648  1.00  0.00    -0.504 OA
ATOM     27  H   UNL     1     -12.037  -5.538 -31.099  1.00  0.00     0.293 HD
ENDBRANCH  23  26
BRANCH  25  28
ATOM     28  O   UNL     1     -12.076  -6.307 -28.018  1.00  0.00    -0.504 OA
ATOM     29  H   UNL     1     -12.830  -5.685 -27.977  1.00  0.00     0.293 HD
ENDBRANCH  25  28
ENDBRANCH  19  20
ENDBRANCH  16  18
ENDBRANCH  15  16
ENDBRANCH   3  15
BRANCH   4  30
ATOM     30  O   UNL     1      -6.974   0.682 -30.707  1.00  0.00    -0.455 OA
BRANCH  30  31
ATOM     31  C   UNL     1      -8.319   0.728 -30.561  1.00  0.00     0.331 C 
ATOM     32  O   UNL     1      -9.131   1.047 -31.417  1.00  0.00    -0.247 OA
BRANCH  31  33
ATOM     33  C   UNL     1      -8.736   0.342 -29.197  1.00  0.00     0.094 C 
ATOM     34  C   UNL     1      -9.828  -0.385 -28.914  1.00  0.00     0.016 C 
BRANCH  34  35
ATOM     35  C   UNL     1     -10.207  -0.769 -27.547  1.00  0.00    -0.021 A 
ATOM     36  C   UNL     1      -9.230  -0.736 -26.540  1.00  0.00     0.058 A 
ATOM     37  C   UNL     1     -11.503  -1.216 -27.234  1.00  0.00     0.012 A 
ATOM     38  C   UNL     1      -9.565  -1.118 -25.244  1.00  0.00     0.157 A 
ATOM     39  C   UNL     1     -11.829  -1.599 -25.930  1.00  0.00     0.051 A 
ATOM     40  C   UNL     1     -10.856  -1.544 -24.946  1.00  0.00     0.157 A 
BRANCH  38  41
ATOM     41  O   UNL     1      -8.654  -1.093 -24.224  1.00  0.00    -0.504 OA
ATOM     42  H   UNL     1      -8.835  -0.314 -23.670  1.00  0.00     0.293 HD
ENDBRANCH  38  41
BRANCH  40  43
ATOM     43  O   UNL     1     -11.175  -1.918 -23.673  1.00  0.00    -0.504 OA
ATOM     44  H   UNL     1     -11.445  -2.855 -23.752  1.00  0.00     0.293 HD
ENDBRANCH  40  43
ENDBRANCH  34  35
ENDBRANCH  31  33
ENDBRANCH  30  31
ENDBRANCH   4  30
TORSDOF 16
ENDMDL
MODEL 10
REMARK VINA RESULT:      -8.4      3.377      5.297
REMARK SMILES O=C(/C=C/c1ccc(O)c(O)c1)O[C@@H]1[C@H](O)C[C@@](O)(C(=O)O)C[C@H]1OC(=O)/C=C/c1ccc(O)c(O)c1
REMARK SMILES IDX 17 1 15 2 14 3 24 4 23 5 18 6 16 7 19 9 20 11 21 12 22 13
REMARK SMILES IDX 13 15 2 16 1 17 3 18 4 19 5 20 12 21 6 22 10 23 7 24 8 25
REMARK SMILES IDX 11 26 9 28 25 30 26 31 27 32 28 33 29 34 30 35 37 36 31 37
REMARK SMILES IDX 35 38 32 39 33 40 36 41 34 43
REMARK H PARENT 16 8 19 10 22 14 11 27 9 29 36 42 34 44
ROOT
ATOM      1  C   UNL     1     -11.623  -2.927 -24.838  1.00  0.00     0.083 C 
ATOM      2  C   UNL     1     -10.329  -2.122 -24.929  1.00  0.00     0.162 C 
ATOM      3  C   UNL     1      -9.914  -1.894 -26.393  1.00  0.00     0.246 C 
ATOM      4  C   UNL     1      -9.768  -3.233 -27.144  1.00  0.00     0.223 C 
ATOM      5  C   UNL     1     -11.050  -4.066 -27.035  1.00  0.00     0.097 C 
ATOM      6  C   UNL     1     -11.498  -4.263 -25.586  1.00  0.00     0.168 C 
ENDROOT
BRANCH   2   7
ATOM      7  O   UNL     1      -9.311  -2.864 -24.238  1.00  0.00    -0.389 OA
ATOM      8  H   UNL     1      -9.598  -3.800 -24.248  1.00  0.00     0.211 HD
ENDBRANCH   2   7
BRANCH   6   9
ATOM      9  O   UNL     1     -10.556  -5.131 -24.922  1.00  0.00    -0.378 OA
ATOM     10  H   UNL     1     -10.339  -4.713 -24.055  1.00  0.00     0.212 HD
ENDBRANCH   6   9
BRANCH   6  11
ATOM     11  C   UNL     1     -12.857  -4.978 -25.563  1.00  0.00     0.335 C 
ATOM     12  O   UNL     1     -13.291  -5.690 -26.455  1.00  0.00    -0.249 OA
BRANCH  11  13
ATOM     13  O   UNL     1     -13.530  -4.731 -24.411  1.00  0.00    -0.479 OA
ATOM     14  H   UNL     1     -13.298  -3.809 -24.136  1.00  0.00     0.296 HD
ENDBRANCH  11  13
ENDBRANCH   6  11
BRANCH   3  15
ATOM     15  O   UNL     1      -8.637  -1.217 -26.414  1.00  0.00    -0.452 OA
BRANCH  15  16
ATOM     16  C   UNL     1      -8.679   0.118 -26.631  1.00  0.00     0.331 C 
ATOM     17  O   UNL     1      -9.053   0.965 -25.839  1.00  0.00    -0.247 OA
BRANCH  16  18
ATOM     18  C   UNL     1      -8.185   0.372 -27.998  1.00  0.00     0.094 C 
ATOM     19  C   UNL     1      -8.994   0.163 -29.048  1.00  0.00     0.016 C 
BRANCH  19  20
ATOM     20  C   UNL     1      -8.601   0.390 -30.447  1.00  0.00    -0.021 A 
ATOM     21  C   UNL     1      -9.375  -0.191 -31.465  1.00  0.00     0.058 A 
ATOM     22  C   UNL     1      -7.450   1.119 -30.793  1.00  0.00     0.012 A 
ATOM     23  C   UNL     1      -9.010  -0.013 -32.796  1.00  0.00     0.157 A 
ATOM     24  C   UNL     1      -7.091   1.292 -32.134  1.00  0.00     0.051 A 
ATOM     25  C   UNL     1      -7.877   0.725 -33.124  1.00  0.00     0.157 A 
BRANCH  23  26
ATOM     26  O   UNL     1      -9.737  -0.550 -33.824  1.00  0.00    -0.504 OA
ATOM     27  H   UNL     1     -10.542  -0.950 -33.452  1.00  0.00     0.293 HD
ENDBRANCH  23  26
BRANCH  25  28
ATOM     28  O   UNL     1      -7.526   0.893 -34.432  1.00  0.00    -0.504 OA
ATOM     29  H   UNL     1      -7.346  -0.010 -34.757  1.00  0.00     0.293 HD
ENDBRANCH  25  28
ENDBRANCH  19  20
ENDBRANCH  16  18
ENDBRANCH  15  16
ENDBRANCH   3  15
BRANCH   4  30
ATOM     30  O   UNL     1      -9.564  -2.974 -28.553  1.00  0.00    -0.455 OA
BRANCH  30  31
ATOM     31  C   UNL     1      -8.514  -3.594 -29.143  1.00  0.00     0.331 C 
ATOM     32  O   UNL     1      -8.554  -4.631 -29.788  1.00  0.00    -0.247 OA
BRANCH  31  33
ATOM     33  C   UNL     1      -7.249  -2.866 -28.917  1.00  0.00     0.094 C 
ATOM     34  C   UNL     1      -6.422  -2.459 -29.893  1.00  0.00     0.016 C 
BRANCH  34  35
ATOM     35  C   UNL     1      -5.178  -1.719 -29.638  1.00  0.00    -0.021 A 
ATOM     36  C   UNL     1      -4.515  -1.118 -30.719  1.00  0.00     0.058 A 
ATOM     37  C   UNL     1      -4.611  -1.643 -28.354  1.00  0.00     0.012 A 
ATOM     38  C   UNL     1      -3.323  -0.433 -30.500  1.00  0.00     0.157 A 
ATOM     39  C   UNL     1      -3.413  -0.954 -28.144  1.00  0.00     0.051 A 
ATOM     40  C   UNL     1      -2.781  -0.353 -29.220  1.00  0.00     0.157 A 
BRANCH  38  41
ATOM     41  O   UNL     1      -2.643   0.180 -31.516  1.00  0.00    -0.504 OA
ATOM     42  H   UNL     1      -2.231  -0.507 -32.067  1.00  0.00     0.293 HD
ENDBRANCH  38  41
BRANCH  40  43
ATOM     43  O   UNL     1      -1.612   0.319 -29.014  1.00  0.00    -0.504 OA
ATOM     44  H   UNL     1      -1.221  -0.103 -28.223  1.00  0.00     0.293 HD
ENDBRANCH  40  43
ENDBRANCH  34  35
ENDBRANCH  31  33
ENDBRANCH  30  31
ENDBRANCH   4  30
TORSDOF 16
ENDMDL
