MODEL 1
REMARK VINA RESULT:      -6.2      0.000      0.000
REMARK SMILES C=C(C)[C@@H]1CC=C(C)CC1
REMARK SMILES IDX 8 1 7 2 6 3 5 4 4 5 10 6 9 7 2 8 1 9 3 10
REMARK H PARENT
ROOT
ATOM      1  C   UNL     1       8.527   0.251 -15.480  1.00  0.00     0.039 C 
ATOM      2  C   UNL     1       8.021  -0.395 -16.737  1.00  0.00    -0.077 C 
ATOM      3  C   UNL     1       8.754  -0.440 -17.864  1.00  0.00    -0.027 C 
ATOM      4  C   UNL     1       8.267  -1.038 -19.154  1.00  0.00     0.035 C 
ATOM      5  C   UNL     1       6.749  -1.318 -19.179  1.00  0.00     0.018 C 
ATOM      6  C   UNL     1       6.321  -1.933 -17.834  1.00  0.00     0.013 C 
ATOM      7  C   UNL     1       6.639  -0.994 -16.666  1.00  0.00     0.031 C 
ENDROOT
BRANCH   5   8
ATOM      8  C   UNL     1       6.358  -2.123 -20.420  1.00  0.00    -0.077 C 
ATOM      9  C   UNL     1       5.527  -1.690 -21.385  1.00  0.00     0.008 C 
ATOM     10  C   UNL     1       7.000  -3.484 -20.537  1.00  0.00     0.039 C 
ENDBRANCH   5   8
TORSDOF 1
ENDMDL
MODEL 2
REMARK VINA RESULT:      -5.6      1.004      4.432
REMARK SMILES C=C(C)[C@@H]1CC=C(C)CC1
REMARK SMILES IDX 8 1 7 2 6 3 5 4 4 5 10 6 9 7 2 8 1 9 3 10
REMARK H PARENT
ROOT
ATOM      1  C   UNL     1       5.947  -3.195 -20.473  1.00  0.00     0.039 C 
ATOM      2  C   UNL     1       6.517  -2.284 -19.425  1.00  0.00    -0.077 C 
ATOM      3  C   UNL     1       7.358  -1.280 -19.729  1.00  0.00    -0.027 C 
ATOM      4  C   UNL     1       7.984  -0.374 -18.706  1.00  0.00     0.035 C 
ATOM      5  C   UNL     1       7.835  -0.876 -17.253  1.00  0.00     0.018 C 
ATOM      6  C   UNL     1       6.406  -1.409 -17.041  1.00  0.00     0.013 C 
ATOM      7  C   UNL     1       6.091  -2.558 -18.004  1.00  0.00     0.031 C 
ENDROOT
BRANCH   5   8
ATOM      8  C   UNL     1       8.291   0.189 -16.254  1.00  0.00    -0.077 C 
ATOM      9  C   UNL     1       9.110  -0.039 -15.212  1.00  0.00     0.008 C 
ATOM     10  C   UNL     1       7.780   1.584 -16.516  1.00  0.00     0.039 C 
ENDBRANCH   5   8
TORSDOF 1
ENDMDL
MODEL 3
REMARK VINA RESULT:      -5.2     13.564     15.899
REMARK SMILES C=C(C)[C@@H]1CC=C(C)CC1
REMARK SMILES IDX 8 1 7 2 6 3 5 4 4 5 10 6 9 7 2 8 1 9 3 10
REMARK H PARENT
ROOT
ATOM      1  C   UNL     1      -7.383  -2.976 -28.572  1.00  0.00     0.039 C 
ATOM      2  C   UNL     1      -6.117  -2.185 -28.726  1.00  0.00    -0.077 C 
ATOM      3  C   UNL     1      -5.764  -1.618 -29.893  1.00  0.00    -0.027 C 
ATOM      4  C   UNL     1      -4.485  -0.856 -30.099  1.00  0.00     0.035 C 
ATOM      5  C   UNL     1      -3.460  -1.036 -28.959  1.00  0.00     0.018 C 
ATOM      6  C   UNL     1      -4.188  -0.970 -27.603  1.00  0.00     0.013 C 
ATOM      7  C   UNL     1      -5.258  -2.060 -27.492  1.00  0.00     0.031 C 
ENDROOT
BRANCH   5   8
ATOM      8  C   UNL     1      -2.284  -0.069 -29.118  1.00  0.00    -0.077 C 
ATOM      9  C   UNL     1      -1.521   0.033 -30.220  1.00  0.00     0.008 C 
ATOM     10  C   UNL     1      -2.023   0.831 -27.936  1.00  0.00     0.039 C 
ENDBRANCH   5   8
TORSDOF 1
ENDMDL
MODEL 4
REMARK VINA RESULT:      -5.2     13.990     14.744
REMARK SMILES C=C(C)[C@@H]1CC=C(C)CC1
REMARK SMILES IDX 8 1 7 2 6 3 5 4 4 5 10 6 9 7 2 8 1 9 3 10
REMARK H PARENT
ROOT
ATOM      1  C   UNL     1      -5.910  -1.174 -24.656  1.00  0.00     0.039 C 
ATOM      2  C   UNL     1      -5.106  -0.952 -25.904  1.00  0.00    -0.077 C 
ATOM      3  C   UNL     1      -4.295   0.110 -26.053  1.00  0.00    -0.027 C 
ATOM      4  C   UNL     1      -3.507   0.391 -27.302  1.00  0.00     0.035 C 
ATOM      5  C   UNL     1      -3.937  -0.462 -28.516  1.00  0.00     0.018 C 
ATOM      6  C   UNL     1      -4.172  -1.914 -28.062  1.00  0.00     0.013 C 
ATOM      7  C   UNL     1      -5.258  -1.992 -26.985  1.00  0.00     0.031 C 
ENDROOT
BRANCH   5   8
ATOM      8  C   UNL     1      -2.960  -0.290 -29.682  1.00  0.00    -0.077 C 
ATOM      9  C   UNL     1      -3.207  -0.664 -30.949  1.00  0.00     0.008 C 
ATOM     10  C   UNL     1      -1.650   0.375 -29.336  1.00  0.00     0.039 C 
ENDBRANCH   5   8
TORSDOF 1
ENDMDL
MODEL 5
REMARK VINA RESULT:      -5.2     13.747     14.655
REMARK SMILES C=C(C)[C@@H]1CC=C(C)CC1
REMARK SMILES IDX 8 1 7 2 6 3 5 4 4 5 10 6 9 7 2 8 1 9 3 10
REMARK H PARENT
ROOT
ATOM      1  C   UNL     1      -6.079  -0.903 -24.191  1.00  0.00     0.039 C 
ATOM      2  C   UNL     1      -5.335  -0.840 -25.493  1.00  0.00    -0.077 C 
ATOM      3  C   UNL     1      -5.619  -1.660 -26.520  1.00  0.00    -0.027 C 
ATOM      4  C   UNL     1      -4.869  -1.658 -27.823  1.00  0.00     0.035 C 
ATOM      5  C   UNL     1      -3.548  -0.860 -27.782  1.00  0.00     0.018 C 
ATOM      6  C   UNL     1      -3.772   0.459 -27.019  1.00  0.00     0.013 C 
ATOM      7  C   UNL     1      -4.246   0.200 -25.585  1.00  0.00     0.031 C 
ENDROOT
BRANCH   5   8
ATOM      8  C   UNL     1      -2.952  -0.711 -29.183  1.00  0.00    -0.077 C 
ATOM      9  C   UNL     1      -1.979   0.157 -29.513  1.00  0.00     0.008 C 
ATOM     10  C   UNL     1      -3.509  -1.647 -30.226  1.00  0.00     0.039 C 
ENDBRANCH   5   8
TORSDOF 1
ENDMDL
MODEL 6
REMARK VINA RESULT:      -5.1     14.413     17.814
REMARK SMILES C=C(C)[C@@H]1CC=C(C)CC1
REMARK SMILES IDX 8 1 7 2 6 3 5 4 4 5 10 6 9 7 2 8 1 9 3 10
REMARK H PARENT
ROOT
ATOM      1  C   UNL     1      -7.589   1.247 -32.999  1.00  0.00     0.039 C 
ATOM      2  C   UNL     1      -6.524   0.705 -32.090  1.00  0.00    -0.077 C 
ATOM      3  C   UNL     1      -6.738  -0.353 -31.289  1.00  0.00    -0.027 C 
ATOM      4  C   UNL     1      -5.713  -0.899 -30.334  1.00  0.00     0.035 C 
ATOM      5  C   UNL     1      -4.503   0.036 -30.115  1.00  0.00     0.018 C 
ATOM      6  C   UNL     1      -4.061   0.624 -31.469  1.00  0.00     0.013 C 
ATOM      7  C   UNL     1      -5.195   1.416 -32.128  1.00  0.00     0.031 C 
ENDROOT
BRANCH   5   8
ATOM      8  C   UNL     1      -3.402  -0.667 -29.317  1.00  0.00    -0.077 C 
ATOM      9  C   UNL     1      -3.506  -1.900 -28.793  1.00  0.00     0.008 C 
ATOM     10  C   UNL     1      -2.120   0.112 -29.160  1.00  0.00     0.039 C 
ENDBRANCH   5   8
TORSDOF 1
ENDMDL
MODEL 7
REMARK VINA RESULT:      -5.1     13.492     15.168
REMARK SMILES C=C(C)[C@@H]1CC=C(C)CC1
REMARK SMILES IDX 8 1 7 2 6 3 5 4 4 5 10 6 9 7 2 8 1 9 3 10
REMARK H PARENT
ROOT
ATOM      1  C   UNL     1      -3.462  -1.701 -30.152  1.00  0.00     0.039 C 
ATOM      2  C   UNL     1      -3.983  -1.312 -28.800  1.00  0.00    -0.077 C 
ATOM      3  C   UNL     1      -3.407  -0.348 -28.060  1.00  0.00    -0.027 C 
ATOM      4  C   UNL     1      -3.871   0.040 -26.684  1.00  0.00     0.035 C 
ATOM      5  C   UNL     1      -4.865  -0.960 -26.055  1.00  0.00     0.018 C 
ATOM      6  C   UNL     1      -5.888  -1.401 -27.119  1.00  0.00     0.013 C 
ATOM      7  C   UNL     1      -5.196  -2.065 -28.315  1.00  0.00     0.031 C 
ENDROOT
BRANCH   5   8
ATOM      8  C   UNL     1      -5.466  -0.400 -24.764  1.00  0.00    -0.077 C 
ATOM      9  C   UNL     1      -4.815   0.399 -23.901  1.00  0.00     0.008 C 
ATOM     10  C   UNL     1      -6.902  -0.780 -24.500  1.00  0.00     0.039 C 
ENDBRANCH   5   8
TORSDOF 1
ENDMDL
MODEL 8
REMARK VINA RESULT:      -5.1     13.485     14.810
REMARK SMILES C=C(C)[C@@H]1CC=C(C)CC1
REMARK SMILES IDX 8 1 7 2 6 3 5 4 4 5 10 6 9 7 2 8 1 9 3 10
REMARK H PARENT
ROOT
ATOM      1  C   UNL     1      -1.789  -0.230 -30.474  1.00  0.00     0.039 C 
ATOM      2  C   UNL     1      -2.643  -0.312 -29.242  1.00  0.00    -0.077 C 
ATOM      3  C   UNL     1      -3.312  -1.429 -28.908  1.00  0.00    -0.027 C 
ATOM      4  C   UNL     1      -4.211  -1.538 -27.708  1.00  0.00     0.035 C 
ATOM      5  C   UNL     1      -4.554  -0.179 -27.060  1.00  0.00     0.018 C 
ATOM      6  C   UNL     1      -3.285   0.692 -26.997  1.00  0.00     0.013 C 
ATOM      7  C   UNL     1      -2.707   0.934 -28.395  1.00  0.00     0.031 C 
ENDROOT
BRANCH   5   8
ATOM      8  C   UNL     1      -5.279  -0.373 -25.726  1.00  0.00    -0.077 C 
ATOM      9  C   UNL     1      -6.472  -0.978 -25.585  1.00  0.00     0.008 C 
ATOM     10  C   UNL     1      -4.550   0.144 -24.511  1.00  0.00     0.039 C 
ENDBRANCH   5   8
TORSDOF 1
ENDMDL
MODEL 9
REMARK VINA RESULT:      -5.1      2.700      5.418
REMARK SMILES C=C(C)[C@@H]1CC=C(C)CC1
REMARK SMILES IDX 8 1 7 2 6 3 5 4 4 5 10 6 9 7 2 8 1 9 3 10
REMARK H PARENT
ROOT
ATOM      1  C   UNL     1       6.090  -1.715 -16.779  1.00  0.00     0.039 C 
ATOM      2  C   UNL     1       7.384  -0.995 -16.531  1.00  0.00    -0.077 C 
ATOM      3  C   UNL     1       8.393  -1.554 -15.840  1.00  0.00    -0.027 C 
ATOM      4  C   UNL     1       9.686  -0.850 -15.533  1.00  0.00     0.035 C 
ATOM      5  C   UNL     1       9.649   0.670 -15.803  1.00  0.00     0.018 C 
ATOM      6  C   UNL     1       8.924   0.934 -17.135  1.00  0.00     0.013 C 
ATOM      7  C   UNL     1       7.490   0.395 -17.106  1.00  0.00     0.031 C 
ENDROOT
BRANCH   5   8
ATOM      8  C   UNL     1      11.046   1.283 -15.686  1.00  0.00    -0.077 C 
ATOM      9  C   UNL     1      12.195   0.611 -15.876  1.00  0.00     0.008 C 
ATOM     10  C   UNL     1      11.081   2.756 -15.359  1.00  0.00     0.039 C 
ENDBRANCH   5   8
TORSDOF 1
ENDMDL
MODEL 10
REMARK VINA RESULT:      -5.1     13.969     15.654
REMARK SMILES C=C(C)[C@@H]1CC=C(C)CC1
REMARK SMILES IDX 8 1 7 2 6 3 5 4 4 5 10 6 9 7 2 8 1 9 3 10
REMARK H PARENT
ROOT
ATOM      1  C   UNL     1      -3.473  -1.904 -28.883  1.00  0.00     0.039 C 
ATOM      2  C   UNL     1      -3.411  -0.405 -28.874  1.00  0.00    -0.077 C 
ATOM      3  C   UNL     1      -2.462   0.269 -28.201  1.00  0.00    -0.027 C 
ATOM      4  C   UNL     1      -2.391   1.769 -28.132  1.00  0.00     0.035 C 
ATOM      5  C   UNL     1      -3.669   2.478 -28.632  1.00  0.00     0.018 C 
ATOM      6  C   UNL     1      -4.166   1.787 -29.916  1.00  0.00     0.013 C 
ATOM      7  C   UNL     1      -4.478   0.308 -29.667  1.00  0.00     0.031 C 
ENDROOT
BRANCH   5   8
ATOM      8  C   UNL     1      -3.451   3.988 -28.745  1.00  0.00    -0.077 C 
ATOM      9  C   UNL     1      -2.612   4.701 -27.972  1.00  0.00     0.008 C 
ATOM     10  C   UNL     1      -4.237   4.676 -29.834  1.00  0.00     0.039 C 
ENDBRANCH   5   8
TORSDOF 1
ENDMDL
