MODEL 1
REMARK VINA RESULT:      -5.4      0.000      0.000
REMARK SMILES C=Cc1ccc(O)c(OC)c1
REMARK SMILES IDX 8 1 6 2 5 3 4 4 3 5 11 6 9 7 10 8 7 9 2 11 1 12
REMARK H PARENT 7 10
ROOT
ATOM      1  C   UNL     1       4.587  -1.729 -23.844  1.00  0.00     0.161 A 
ATOM      2  C   UNL     1       3.279  -1.422 -24.235  1.00  0.00     0.157 A 
ATOM      3  C   UNL     1       3.018  -0.685 -25.381  1.00  0.00     0.051 A 
ATOM      4  C   UNL     1       4.083  -0.235 -26.160  1.00  0.00     0.012 A 
ATOM      5  C   UNL     1       5.407  -0.514 -25.787  1.00  0.00    -0.022 A 
ATOM      6  C   UNL     1       5.648  -1.277 -24.630  1.00  0.00     0.058 A 
ENDROOT
BRANCH   1   7
ATOM      7  O   UNL     1       4.686  -2.470 -22.693  1.00  0.00    -0.493 OA
ATOM      8  C   UNL     1       5.629  -2.021 -21.726  1.00  0.00     0.278 C 
ENDBRANCH   1   7
BRANCH   2   9
ATOM      9  O   UNL     1       2.217  -1.853 -23.488  1.00  0.00    -0.504 OA
ATOM     10  H   UNL     1       1.925  -2.679 -23.922  1.00  0.00     0.293 HD
ENDBRANCH   2   9
BRANCH   5  11
ATOM     11  C   UNL     1       6.552  -0.084 -26.601  1.00  0.00     0.000 C 
ATOM     12  C   UNL     1       6.451   0.469 -27.817  1.00  0.00     0.009 C 
ENDBRANCH   5  11
TORSDOF 3
ENDMDL
MODEL 2
REMARK VINA RESULT:      -5.4      8.846     10.574
REMARK SMILES C=Cc1ccc(O)c(OC)c1
REMARK SMILES IDX 8 1 6 2 5 3 4 4 3 5 11 6 9 7 10 8 7 9 2 11 1 12
REMARK H PARENT 7 10
ROOT
ATOM      1  C   UNL     1      -4.317  -0.719 -29.980  1.00  0.00     0.161 A 
ATOM      2  C   UNL     1      -3.060  -0.437 -30.526  1.00  0.00     0.157 A 
ATOM      3  C   UNL     1      -2.031   0.080 -29.751  1.00  0.00     0.051 A 
ATOM      4  C   UNL     1      -2.256   0.330 -28.397  1.00  0.00     0.012 A 
ATOM      5  C   UNL     1      -3.510   0.071 -27.824  1.00  0.00    -0.022 A 
ATOM      6  C   UNL     1      -4.533  -0.468 -28.624  1.00  0.00     0.058 A 
ENDROOT
BRANCH   1   7
ATOM      7  O   UNL     1      -5.229  -1.233 -30.867  1.00  0.00    -0.493 OA
ATOM      8  C   UNL     1      -6.440  -0.504 -31.029  1.00  0.00     0.278 C 
ENDBRANCH   1   7
BRANCH   2   9
ATOM      9  O   UNL     1      -2.814  -0.674 -31.851  1.00  0.00    -0.504 OA
ATOM     10  H   UNL     1      -1.939  -1.109 -31.869  1.00  0.00     0.293 HD
ENDBRANCH   2   9
BRANCH   5  11
ATOM     11  C   UNL     1      -3.772   0.292 -26.395  1.00  0.00     0.000 C 
ATOM     12  C   UNL     1      -4.808  -0.230 -25.725  1.00  0.00     0.009 C 
ENDBRANCH   5  11
TORSDOF 3
ENDMDL
MODEL 3
REMARK VINA RESULT:      -5.3      8.740      9.804
REMARK SMILES C=Cc1ccc(O)c(OC)c1
REMARK SMILES IDX 8 1 6 2 5 3 4 4 3 5 11 6 9 7 10 8 7 9 2 11 1 12
REMARK H PARENT 7 10
ROOT
ATOM      1  C   UNL     1      -2.896   0.770 -27.930  1.00  0.00     0.161 A 
ATOM      2  C   UNL     1      -2.651  -0.089 -29.006  1.00  0.00     0.157 A 
ATOM      3  C   UNL     1      -3.237  -1.345 -29.082  1.00  0.00     0.051 A 
ATOM      4  C   UNL     1      -4.088  -1.763 -28.060  1.00  0.00     0.012 A 
ATOM      5  C   UNL     1      -4.343  -0.930 -26.959  1.00  0.00    -0.022 A 
ATOM      6  C   UNL     1      -3.751   0.344 -26.911  1.00  0.00     0.058 A 
ENDROOT
BRANCH   1   7
ATOM      7  O   UNL     1      -2.252   1.979 -27.997  1.00  0.00    -0.493 OA
ATOM      8  C   UNL     1      -3.062   3.119 -28.263  1.00  0.00     0.278 C 
ENDBRANCH   1   7
BRANCH   2   9
ATOM      9  O   UNL     1      -1.821   0.299 -30.022  1.00  0.00    -0.504 OA
ATOM     10  H   UNL     1      -0.969   0.498 -29.587  1.00  0.00     0.293 HD
ENDBRANCH   2   9
BRANCH   5  11
ATOM     11  C   UNL     1      -5.259  -1.326 -25.880  1.00  0.00     0.000 C 
ATOM     12  C   UNL     1      -5.541  -0.571 -24.810  1.00  0.00     0.009 C 
ENDBRANCH   5  11
TORSDOF 3
ENDMDL
MODEL 4
REMARK VINA RESULT:      -5.2      6.414      8.281
REMARK SMILES C=Cc1ccc(O)c(OC)c1
REMARK SMILES IDX 8 1 6 2 5 3 4 4 3 5 11 6 9 7 10 8 7 9 2 11 1 12
REMARK H PARENT 7 10
ROOT
ATOM      1  C   UNL     1       8.468  -0.069 -17.327  1.00  0.00     0.161 A 
ATOM      2  C   UNL     1       7.723  -0.517 -16.230  1.00  0.00     0.157 A 
ATOM      3  C   UNL     1       6.599  -1.314 -16.392  1.00  0.00     0.051 A 
ATOM      4  C   UNL     1       6.198  -1.676 -17.678  1.00  0.00     0.012 A 
ATOM      5  C   UNL     1       6.916  -1.231 -18.799  1.00  0.00    -0.022 A 
ATOM      6  C   UNL     1       8.061  -0.437 -18.611  1.00  0.00     0.058 A 
ENDROOT
BRANCH   1   7
ATOM      7  O   UNL     1       9.555   0.704 -17.009  1.00  0.00    -0.493 OA
ATOM      8  C   UNL     1      10.607   0.063 -16.297  1.00  0.00     0.278 C 
ENDBRANCH   1   7
BRANCH   2   9
ATOM      9  O   UNL     1       8.097  -0.177 -14.959  1.00  0.00    -0.504 OA
ATOM     10  H   UNL     1       9.060  -0.019 -15.015  1.00  0.00     0.293 HD
ENDBRANCH   2   9
BRANCH   5  11
ATOM     11  C   UNL     1       6.541  -1.619 -20.166  1.00  0.00     0.000 C 
ATOM     12  C   UNL     1       6.272  -2.873 -20.551  1.00  0.00     0.009 C 
ENDBRANCH   5  11
TORSDOF 3
ENDMDL
MODEL 5
REMARK VINA RESULT:      -5.2     13.953     15.651
REMARK SMILES C=Cc1ccc(O)c(OC)c1
REMARK SMILES IDX 8 1 6 2 5 3 4 4 3 5 11 6 9 7 10 8 7 9 2 11 1 12
REMARK H PARENT 7 10
ROOT
ATOM      1  C   UNL     1      -9.849   0.486 -31.451  1.00  0.00     0.161 A 
ATOM      2  C   UNL     1     -10.179   0.318 -32.800  1.00  0.00     0.157 A 
ATOM      3  C   UNL     1      -9.276   0.614 -33.811  1.00  0.00     0.051 A 
ATOM      4  C   UNL     1      -8.010   1.095 -33.476  1.00  0.00     0.012 A 
ATOM      5  C   UNL     1      -7.654   1.288 -32.132  1.00  0.00    -0.022 A 
ATOM      6  C   UNL     1      -8.579   0.966 -31.123  1.00  0.00     0.058 A 
ENDROOT
BRANCH   1   7
ATOM      7  O   UNL     1     -10.841   0.144 -30.567  1.00  0.00    -0.493 OA
ATOM      8  C   UNL     1     -10.437  -0.546 -29.390  1.00  0.00     0.278 C 
ENDBRANCH   1   7
BRANCH   2   9
ATOM      9  O   UNL     1     -11.414  -0.153 -33.154  1.00  0.00    -0.504 OA
ATOM     10  H   UNL     1     -11.297  -0.502 -34.060  1.00  0.00     0.293 HD
ENDBRANCH   2   9
BRANCH   5  11
ATOM     11  C   UNL     1      -6.319   1.762 -31.741  1.00  0.00     0.000 C 
ATOM     12  C   UNL     1      -6.082   2.619 -30.740  1.00  0.00     0.009 C 
ENDBRANCH   5  11
TORSDOF 3
ENDMDL
MODEL 6
REMARK VINA RESULT:      -5.1      8.394     10.036
REMARK SMILES C=Cc1ccc(O)c(OC)c1
REMARK SMILES IDX 8 1 6 2 5 3 4 4 3 5 11 6 9 7 10 8 7 9 2 11 1 12
REMARK H PARENT 7 10
ROOT
ATOM      1  C   UNL     1      -5.341  -1.617 -27.154  1.00  0.00     0.161 A 
ATOM      2  C   UNL     1      -5.968  -2.188 -28.266  1.00  0.00     0.157 A 
ATOM      3  C   UNL     1      -5.427  -2.080 -29.540  1.00  0.00     0.051 A 
ATOM      4  C   UNL     1      -4.233  -1.380 -29.717  1.00  0.00     0.012 A 
ATOM      5  C   UNL     1      -3.589  -0.783 -28.623  1.00  0.00    -0.022 A 
ATOM      6  C   UNL     1      -4.146  -0.920 -27.339  1.00  0.00     0.058 A 
ENDROOT
BRANCH   1   7
ATOM      7  O   UNL     1      -5.990  -1.814 -25.961  1.00  0.00    -0.493 OA
ATOM      8  C   UNL     1      -5.741  -0.860 -24.935  1.00  0.00     0.278 C 
ENDBRANCH   1   7
BRANCH   2   9
ATOM      9  O   UNL     1      -7.139  -2.880 -28.119  1.00  0.00    -0.504 OA
ATOM     10  H   UNL     1      -6.867  -3.772 -27.823  1.00  0.00     0.293 HD
ENDBRANCH   2   9
BRANCH   5  11
ATOM     11  C   UNL     1      -2.313  -0.067 -28.768  1.00  0.00     0.000 C 
ATOM     12  C   UNL     1      -1.937   0.972 -28.010  1.00  0.00     0.009 C 
ENDBRANCH   5  11
TORSDOF 3
ENDMDL
MODEL 7
REMARK VINA RESULT:      -5.1     13.766     15.423
REMARK SMILES C=Cc1ccc(O)c(OC)c1
REMARK SMILES IDX 8 1 6 2 5 3 4 4 3 5 11 6 9 7 10 8 7 9 2 11 1 12
REMARK H PARENT 7 10
ROOT
ATOM      1  C   UNL     1      -9.305  -0.747 -31.989  1.00  0.00     0.161 A 
ATOM      2  C   UNL     1     -10.174   0.064 -32.728  1.00  0.00     0.157 A 
ATOM      3  C   UNL     1      -9.747   1.256 -33.296  1.00  0.00     0.051 A 
ATOM      4  C   UNL     1      -8.424   1.659 -33.124  1.00  0.00     0.012 A 
ATOM      5  C   UNL     1      -7.532   0.875 -32.377  1.00  0.00    -0.022 A 
ATOM      6  C   UNL     1      -7.980  -0.337 -31.823  1.00  0.00     0.058 A 
ENDROOT
BRANCH   1   7
ATOM      7  O   UNL     1      -9.867  -1.897 -31.496  1.00  0.00    -0.493 OA
ATOM      8  C   UNL     1      -8.970  -2.880 -30.991  1.00  0.00     0.278 C 
ENDBRANCH   1   7
BRANCH   2   9
ATOM      9  O   UNL     1     -11.477  -0.310 -32.911  1.00  0.00    -0.504 OA
ATOM     10  H   UNL     1     -11.681  -0.061 -33.834  1.00  0.00     0.293 HD
ENDBRANCH   2   9
BRANCH   5  11
ATOM     11  C   UNL     1      -6.122   1.253 -32.203  1.00  0.00     0.000 C 
ATOM     12  C   UNL     1      -5.236   0.560 -31.475  1.00  0.00     0.009 C 
ENDBRANCH   5  11
TORSDOF 3
ENDMDL
MODEL 8
REMARK VINA RESULT:      -5.1      9.307     11.191
REMARK SMILES C=Cc1ccc(O)c(OC)c1
REMARK SMILES IDX 8 1 6 2 5 3 4 4 3 5 11 6 9 7 10 8 7 9 2 11 1 12
REMARK H PARENT 7 10
ROOT
ATOM      1  C   UNL     1      -5.997  -1.731 -29.779  1.00  0.00     0.161 A 
ATOM      2  C   UNL     1      -6.179  -2.324 -28.524  1.00  0.00     0.157 A 
ATOM      3  C   UNL     1      -5.198  -2.266 -27.545  1.00  0.00     0.051 A 
ATOM      4  C   UNL     1      -4.000  -1.607 -27.817  1.00  0.00     0.012 A 
ATOM      5  C   UNL     1      -3.781  -1.015 -29.071  1.00  0.00    -0.022 A 
ATOM      6  C   UNL     1      -4.796  -1.071 -30.043  1.00  0.00     0.058 A 
ENDROOT
BRANCH   1   7
ATOM      7  O   UNL     1      -7.057  -1.865 -30.639  1.00  0.00    -0.493 OA
ATOM      8  C   UNL     1      -7.396  -0.721 -31.415  1.00  0.00     0.278 C 
ENDBRANCH   1   7
BRANCH   2   9
ATOM      9  O   UNL     1      -7.346  -2.976 -28.233  1.00  0.00    -0.504 OA
ATOM     10  H   UNL     1      -8.038  -2.474 -28.708  1.00  0.00     0.293 HD
ENDBRANCH   2   9
BRANCH   5  11
ATOM     11  C   UNL     1      -2.544  -0.284 -29.381  1.00  0.00     0.000 C 
ATOM     12  C   UNL     1      -1.938   0.569 -28.544  1.00  0.00     0.009 C 
ENDBRANCH   5  11
TORSDOF 3
ENDMDL
MODEL 9
REMARK VINA RESULT:      -4.9      8.873     10.644
REMARK SMILES C=Cc1ccc(O)c(OC)c1
REMARK SMILES IDX 8 1 6 2 5 3 4 4 3 5 11 6 9 7 10 8 7 9 2 11 1 12
REMARK H PARENT 7 10
ROOT
ATOM      1  C   UNL     1      -4.270   0.295 -30.474  1.00  0.00     0.161 A 
ATOM      2  C   UNL     1      -3.447  -0.738 -30.013  1.00  0.00     0.157 A 
ATOM      3  C   UNL     1      -2.526  -0.534 -28.994  1.00  0.00     0.051 A 
ATOM      4  C   UNL     1      -2.415   0.732 -28.419  1.00  0.00     0.012 A 
ATOM      5  C   UNL     1      -3.216   1.792 -28.869  1.00  0.00    -0.022 A 
ATOM      6  C   UNL     1      -4.154   1.559 -29.891  1.00  0.00     0.058 A 
ENDROOT
BRANCH   1   7
ATOM      7  O   UNL     1      -5.134  -0.060 -31.479  1.00  0.00    -0.493 OA
ATOM      8  C   UNL     1      -6.329   0.704 -31.591  1.00  0.00     0.278 C 
ENDBRANCH   1   7
BRANCH   2   9
ATOM      9  O   UNL     1      -3.538  -1.989 -30.560  1.00  0.00    -0.504 OA
ATOM     10  H   UNL     1      -3.754  -2.575 -29.809  1.00  0.00     0.293 HD
ENDBRANCH   2   9
BRANCH   5  11
ATOM     11  C   UNL     1      -3.148   3.130 -28.264  1.00  0.00     0.000 C 
ATOM     12  C   UNL     1      -3.265   4.277 -28.946  1.00  0.00     0.009 C 
ENDBRANCH   5  11
TORSDOF 3
ENDMDL
MODEL 10
REMARK VINA RESULT:      -4.9      8.513     10.496
REMARK SMILES C=Cc1ccc(O)c(OC)c1
REMARK SMILES IDX 8 1 6 2 5 3 4 4 3 5 11 6 9 7 10 8 7 9 2 11 1 12
REMARK H PARENT 7 10
ROOT
ATOM      1  C   UNL     1      -3.284   1.893 -28.839  1.00  0.00     0.161 A 
ATOM      2  C   UNL     1      -2.446   0.830 -28.484  1.00  0.00     0.157 A 
ATOM      3  C   UNL     1      -2.596  -0.431 -29.043  1.00  0.00     0.051 A 
ATOM      4  C   UNL     1      -3.608  -0.647 -29.978  1.00  0.00     0.012 A 
ATOM      5  C   UNL     1      -4.473   0.395 -30.344  1.00  0.00    -0.022 A 
ATOM      6  C   UNL     1      -4.293   1.669 -29.777  1.00  0.00     0.058 A 
ENDROOT
BRANCH   1   7
ATOM      7  O   UNL     1      -3.010   3.080 -28.209  1.00  0.00    -0.493 OA
ATOM      8  C   UNL     1      -3.442   4.266 -28.867  1.00  0.00     0.278 C 
ENDBRANCH   1   7
BRANCH   2   9
ATOM      9  O   UNL     1      -1.445   1.017 -27.570  1.00  0.00    -0.504 OA
ATOM     10  H   UNL     1      -1.441   1.979 -27.398  1.00  0.00     0.293 HD
ENDBRANCH   2   9
BRANCH   5  11
ATOM     11  C   UNL     1      -5.529   0.211 -31.350  1.00  0.00     0.000 C 
ATOM     12  C   UNL     1      -6.648  -0.498 -31.153  1.00  0.00     0.009 C 
ENDBRANCH   5  11
TORSDOF 3
ENDMDL
