MODEL 1
REMARK VINA RESULT:      -6.3      0.000      0.000
REMARK SMILES O=C(O)/C=C/c1ccccc1O
REMARK SMILES IDX 5 1 4 2 6 3 8 4 9 5 7 6 10 7 11 8 12 9 2 11 1 12 3 13
REMARK H PARENT 12 10 3 14
ROOT
ATOM      1  C   UNL     1       6.166  -2.206 -19.918  1.00  0.00     0.019 C 
ATOM      2  C   UNL     1       5.929  -1.611 -21.096  1.00  0.00     0.094 C 
ENDROOT
BRANCH   1   3
ATOM      3  C   UNL     1       6.834  -1.544 -18.785  1.00  0.00     0.017 A 
ATOM      4  C   UNL     1       8.530   0.053 -18.069  1.00  0.00     0.001 A 
ATOM      5  C   UNL     1       8.168  -0.142 -16.739  1.00  0.00     0.004 A 
ATOM      6  C   UNL     1       7.864  -0.639 -19.085  1.00  0.00     0.012 A 
ATOM      7  C   UNL     1       7.136  -1.025 -16.422  1.00  0.00     0.047 A 
ATOM      8  C   UNL     1       6.471  -1.715 -17.440  1.00  0.00     0.122 A 
BRANCH   8   9
ATOM      9  O   UNL     1       5.442  -2.559 -17.109  1.00  0.00    -0.507 OA
ATOM     10  H   UNL     1       5.673  -3.455 -17.406  1.00  0.00     0.293 HD
ENDBRANCH   8   9
ENDBRANCH   1   3
BRANCH   2  11
ATOM     11  C   UNL     1       5.238  -2.358 -22.161  1.00  0.00     0.328 C 
ATOM     12  O   UNL     1       4.592  -3.378 -21.991  1.00  0.00    -0.247 OA
BRANCH  11  13
ATOM     13  O   UNL     1       5.404  -1.778 -23.367  1.00  0.00    -0.478 OA
ATOM     14  H   UNL     1       5.968  -0.985 -23.360  1.00  0.00     0.297 HD
ENDBRANCH  11  13
ENDBRANCH   2  11
TORSDOF 4
ENDMDL
MODEL 2
REMARK VINA RESULT:      -5.9      3.010      5.301
REMARK SMILES O=C(O)/C=C/c1ccccc1O
REMARK SMILES IDX 5 1 4 2 6 3 8 4 9 5 7 6 10 7 11 8 12 9 2 11 1 12 3 13
REMARK H PARENT 12 10 3 14
ROOT
ATOM      1  C   UNL     1       7.436   0.210 -17.264  1.00  0.00     0.019 C 
ATOM      2  C   UNL     1       8.643   0.279 -16.683  1.00  0.00     0.094 C 
ENDROOT
BRANCH   1   3
ATOM      3  C   UNL     1       6.952  -0.962 -18.012  1.00  0.00     0.017 A 
ATOM      4  C   UNL     1       6.873  -2.126 -20.151  1.00  0.00     0.001 A 
ATOM      5  C   UNL     1       6.161  -3.171 -19.569  1.00  0.00     0.004 A 
ATOM      6  C   UNL     1       7.270  -1.032 -19.377  1.00  0.00     0.012 A 
ATOM      7  C   UNL     1       5.850  -3.129 -18.210  1.00  0.00     0.047 A 
ATOM      8  C   UNL     1       6.250  -2.034 -17.438  1.00  0.00     0.122 A 
BRANCH   8   9
ATOM      9  O   UNL     1       5.956  -2.024 -16.098  1.00  0.00    -0.507 OA
ATOM     10  H   UNL     1       5.297  -1.329 -15.934  1.00  0.00     0.293 HD
ENDBRANCH   8   9
ENDBRANCH   1   3
BRANCH   2  11
ATOM     11  C   UNL     1       9.025   1.495 -15.944  1.00  0.00     0.328 C 
ATOM     12  O   UNL     1      10.097   1.665 -15.389  1.00  0.00    -0.247 OA
BRANCH  11  13
ATOM     13  O   UNL     1       8.039   2.414 -15.951  1.00  0.00    -0.478 OA
ATOM     14  H   UNL     1       8.298   3.283 -16.303  1.00  0.00     0.297 HD
ENDBRANCH  11  13
ENDBRANCH   2  11
TORSDOF 4
ENDMDL
MODEL 3
REMARK VINA RESULT:      -5.8     12.811     13.996
REMARK SMILES O=C(O)/C=C/c1ccccc1O
REMARK SMILES IDX 5 1 4 2 6 3 8 4 9 5 7 6 10 7 11 8 12 9 2 11 1 12 3 13
REMARK H PARENT 12 10 3 14
ROOT
ATOM      1  C   UNL     1      -4.076   0.053 -26.528  1.00  0.00     0.019 C 
ATOM      2  C   UNL     1      -4.973  -0.734 -25.916  1.00  0.00     0.094 C 
ENDROOT
BRANCH   1   3
ATOM      3  C   UNL     1      -3.599  -0.164 -27.904  1.00  0.00     0.017 A 
ATOM      4  C   UNL     1      -4.079  -1.090 -30.106  1.00  0.00     0.001 A 
ATOM      5  C   UNL     1      -2.867  -0.604 -30.588  1.00  0.00     0.004 A 
ATOM      6  C   UNL     1      -4.445  -0.867 -28.775  1.00  0.00     0.012 A 
ATOM      7  C   UNL     1      -2.020   0.112 -29.742  1.00  0.00     0.047 A 
ATOM      8  C   UNL     1      -2.389   0.334 -28.412  1.00  0.00     0.122 A 
BRANCH   8   9
ATOM      9  O   UNL     1      -1.554   1.062 -27.604  1.00  0.00    -0.507 OA
ATOM     10  H   UNL     1      -2.083   1.455 -26.889  1.00  0.00     0.293 HD
ENDBRANCH   8   9
ENDBRANCH   1   3
BRANCH   2  11
ATOM     11  C   UNL     1      -5.395  -0.421 -24.540  1.00  0.00     0.328 C 
ATOM     12  O   UNL     1      -6.245  -1.031 -23.915  1.00  0.00    -0.247 OA
BRANCH  11  13
ATOM     13  O   UNL     1      -4.724   0.637 -24.040  1.00  0.00    -0.478 OA
ATOM     14  H   UNL     1      -3.906   0.409 -23.564  1.00  0.00     0.297 HD
ENDBRANCH  11  13
ENDBRANCH   2  11
TORSDOF 4
ENDMDL
MODEL 4
REMARK VINA RESULT:      -5.7     13.434     14.665
REMARK SMILES O=C(O)/C=C/c1ccccc1O
REMARK SMILES IDX 5 1 4 2 6 3 8 4 9 5 7 6 10 7 11 8 12 9 2 11 1 12 3 13
REMARK H PARENT 12 10 3 14
ROOT
ATOM      1  C   UNL     1      -0.132 -10.975 -26.517  1.00  0.00     0.019 C 
ATOM      2  C   UNL     1      -0.161 -12.275 -26.189  1.00  0.00     0.094 C 
ENDROOT
BRANCH   1   3
ATOM      3  C   UNL     1      -1.280 -10.246 -27.081  1.00  0.00     0.017 A 
ATOM      4  C   UNL     1      -3.637 -10.314 -27.694  1.00  0.00     0.001 A 
ATOM      5  C   UNL     1      -3.588  -8.976 -28.076  1.00  0.00     0.004 A 
ATOM      6  C   UNL     1      -2.492 -10.943 -27.195  1.00  0.00     0.012 A 
ATOM      7  C   UNL     1      -2.397  -8.262 -27.954  1.00  0.00     0.047 A 
ATOM      8  C   UNL     1      -1.253  -8.893 -27.454  1.00  0.00     0.122 A 
BRANCH   8   9
ATOM      9  O   UNL     1      -0.099  -8.165 -27.318  1.00  0.00    -0.507 OA
ATOM     10  H   UNL     1       0.046  -7.994 -26.373  1.00  0.00     0.293 HD
ENDBRANCH   8   9
ENDBRANCH   1   3
BRANCH   2  11
ATOM     11  C   UNL     1       1.040 -12.907 -25.616  1.00  0.00     0.328 C 
ATOM     12  O   UNL     1       1.807 -13.629 -26.229  1.00  0.00    -0.247 OA
BRANCH  11  13
ATOM     13  O   UNL     1       1.197 -12.593 -24.314  1.00  0.00    -0.478 OA
ATOM     14  H   UNL     1       1.550 -11.700 -24.153  1.00  0.00     0.297 HD
ENDBRANCH  11  13
ENDBRANCH   2  11
TORSDOF 4
ENDMDL
MODEL 5
REMARK VINA RESULT:      -5.7     16.521     19.060
REMARK SMILES O=C(O)/C=C/c1ccccc1O
REMARK SMILES IDX 5 1 4 2 6 3 8 4 9 5 7 6 10 7 11 8 12 9 2 11 1 12 3 13
REMARK H PARENT 12 10 3 14
ROOT
ATOM      1  C   UNL     1      -8.480   0.918 -31.765  1.00  0.00     0.019 C 
ATOM      2  C   UNL     1      -8.926   0.845 -33.027  1.00  0.00     0.094 C 
ENDROOT
BRANCH   1   3
ATOM      3  C   UNL     1      -7.053   0.946 -31.400  1.00  0.00     0.017 A 
ATOM      4  C   UNL     1      -5.110   2.318 -30.876  1.00  0.00     0.001 A 
ATOM      5  C   UNL     1      -4.352   1.175 -30.637  1.00  0.00     0.004 A 
ATOM      6  C   UNL     1      -6.452   2.205 -31.249  1.00  0.00     0.012 A 
ATOM      7  C   UNL     1      -4.937  -0.085 -30.765  1.00  0.00     0.047 A 
ATOM      8  C   UNL     1      -6.280  -0.196 -31.137  1.00  0.00     0.122 A 
BRANCH   8   9
ATOM      9  O   UNL     1      -6.842  -1.443 -31.232  1.00  0.00    -0.507 OA
ATOM     10  H   UNL     1      -6.129  -2.092 -31.358  1.00  0.00     0.293 HD
ENDBRANCH   8   9
ENDBRANCH   1   3
BRANCH   2  11
ATOM     11  C   UNL     1     -10.376   0.837 -33.286  1.00  0.00     0.328 C 
ATOM     12  O   UNL     1     -11.009  -0.128 -33.678  1.00  0.00    -0.247 OA
BRANCH  11  13
ATOM     13  O   UNL     1     -10.934   2.040 -33.036  1.00  0.00    -0.478 OA
ATOM     14  H   UNL     1     -11.908   2.043 -33.045  1.00  0.00     0.297 HD
ENDBRANCH  11  13
ENDBRANCH   2  11
TORSDOF 4
ENDMDL
MODEL 6
REMARK VINA RESULT:      -5.7      1.457      2.051
REMARK SMILES O=C(O)/C=C/c1ccccc1O
REMARK SMILES IDX 5 1 4 2 6 3 8 4 9 5 7 6 10 7 11 8 12 9 2 11 1 12 3 13
REMARK H PARENT 12 10 3 14
ROOT
ATOM      1  C   UNL     1       6.384  -2.132 -20.032  1.00  0.00     0.019 C 
ATOM      2  C   UNL     1       5.946  -1.491 -21.126  1.00  0.00     0.094 C 
ENDROOT
BRANCH   1   3
ATOM      3  C   UNL     1       7.028  -1.459 -18.891  1.00  0.00     0.017 A 
ATOM      4  C   UNL     1       6.720  -0.243 -16.803  1.00  0.00     0.001 A 
ATOM      5  C   UNL     1       8.098  -0.195 -16.614  1.00  0.00     0.004 A 
ATOM      6  C   UNL     1       6.189  -0.875 -17.931  1.00  0.00     0.012 A 
ATOM      7  C   UNL     1       8.949  -0.784 -17.549  1.00  0.00     0.047 A 
ATOM      8  C   UNL     1       8.415  -1.417 -18.675  1.00  0.00     0.122 A 
BRANCH   8   9
ATOM      9  O   UNL     1       9.267  -2.013 -19.569  1.00  0.00    -0.507 OA
ATOM     10  H   UNL     1       9.597  -2.838 -19.175  1.00  0.00     0.293 HD
ENDBRANCH   8   9
ENDBRANCH   1   3
BRANCH   2  11
ATOM     11  C   UNL     1       5.301  -2.257 -22.207  1.00  0.00     0.328 C 
ATOM     12  O   UNL     1       5.241  -1.904 -23.371  1.00  0.00    -0.247 OA
BRANCH  11  13
ATOM     13  O   UNL     1       4.776  -3.414 -21.754  1.00  0.00    -0.478 OA
ATOM     14  H   UNL     1       4.532  -3.406 -20.811  1.00  0.00     0.297 HD
ENDBRANCH  11  13
ENDBRANCH   2  11
TORSDOF 4
ENDMDL
MODEL 7
REMARK VINA RESULT:      -5.7     16.455     19.104
REMARK SMILES O=C(O)/C=C/c1ccccc1O
REMARK SMILES IDX 5 1 4 2 6 3 8 4 9 5 7 6 10 7 11 8 12 9 2 11 1 12 3 13
REMARK H PARENT 12 10 3 14
ROOT
ATOM      1  C   UNL     1      -8.450  -0.444 -32.295  1.00  0.00     0.019 C 
ATOM      2  C   UNL     1      -9.440   0.408 -31.992  1.00  0.00     0.094 C 
ENDROOT
BRANCH   1   3
ATOM      3  C   UNL     1      -7.367  -0.807 -31.366  1.00  0.00     0.017 A 
ATOM      4  C   UNL     1      -6.567  -2.374 -29.681  1.00  0.00     0.001 A 
ATOM      5  C   UNL     1      -5.365  -1.677 -29.587  1.00  0.00     0.004 A 
ATOM      6  C   UNL     1      -7.558  -1.946 -30.568  1.00  0.00     0.012 A 
ATOM      7  C   UNL     1      -5.150  -0.553 -30.383  1.00  0.00     0.047 A 
ATOM      8  C   UNL     1      -6.143  -0.127 -31.271  1.00  0.00     0.122 A 
BRANCH   8   9
ATOM      9  O   UNL     1      -5.901   0.965 -32.063  1.00  0.00    -0.507 OA
ATOM     10  H   UNL     1      -5.467   0.663 -32.879  1.00  0.00     0.293 HD
ENDBRANCH   8   9
ENDBRANCH   1   3
BRANCH   2  11
ATOM     11  C   UNL     1     -10.485   0.693 -32.991  1.00  0.00     0.328 C 
ATOM     12  O   UNL     1     -10.929  -0.118 -33.785  1.00  0.00    -0.247 OA
BRANCH  11  13
ATOM     13  O   UNL     1     -10.902   1.974 -32.926  1.00  0.00    -0.478 OA
ATOM     14  H   UNL     1     -11.867   2.083 -32.869  1.00  0.00     0.297 HD
ENDBRANCH  11  13
ENDBRANCH   2  11
TORSDOF 4
ENDMDL
MODEL 8
REMARK VINA RESULT:      -5.7      2.340      3.313
REMARK SMILES O=C(O)/C=C/c1ccccc1O
REMARK SMILES IDX 5 1 4 2 6 3 8 4 9 5 7 6 10 7 11 8 12 9 2 11 1 12 3 13
REMARK H PARENT 12 10 3 14
ROOT
ATOM      1  C   UNL     1       7.415  -0.831 -17.812  1.00  0.00     0.019 C 
ATOM      2  C   UNL     1       7.755  -1.358 -18.998  1.00  0.00     0.094 C 
ENDROOT
BRANCH   1   3
ATOM      3  C   UNL     1       8.358  -0.126 -16.928  1.00  0.00     0.017 A 
ATOM      4  C   UNL     1      10.489  -0.196 -15.750  1.00  0.00     0.001 A 
ATOM      5  C   UNL     1      10.296   1.108 -15.300  1.00  0.00     0.004 A 
ATOM      6  C   UNL     1       9.530  -0.806 -16.563  1.00  0.00     0.012 A 
ATOM      7  C   UNL     1       9.146   1.806 -15.666  1.00  0.00     0.047 A 
ATOM      8  C   UNL     1       8.188   1.194 -16.480  1.00  0.00     0.122 A 
BRANCH   8   9
ATOM      9  O   UNL     1       7.077   1.907 -16.849  1.00  0.00    -0.507 OA
ATOM     10  H   UNL     1       6.889   2.562 -16.157  1.00  0.00     0.293 HD
ENDBRANCH   8   9
ENDBRANCH   1   3
BRANCH   2  11
ATOM     11  C   UNL     1       6.731  -2.032 -19.814  1.00  0.00     0.328 C 
ATOM     12  O   UNL     1       6.011  -1.478 -20.627  1.00  0.00    -0.247 OA
BRANCH  11  13
ATOM     13  O   UNL     1       6.676  -3.355 -19.555  1.00  0.00    -0.478 OA
ATOM     14  H   UNL     1       7.415  -3.692 -19.018  1.00  0.00     0.297 HD
ENDBRANCH  11  13
ENDBRANCH   2  11
TORSDOF 4
ENDMDL
MODEL 9
REMARK VINA RESULT:      -5.6     11.705     13.835
REMARK SMILES O=C(O)/C=C/c1ccccc1O
REMARK SMILES IDX 5 1 4 2 6 3 8 4 9 5 7 6 10 7 11 8 12 9 2 11 1 12 3 13
REMARK H PARENT 12 10 3 14
ROOT
ATOM      1  C   UNL     1       0.601 -10.186 -25.516  1.00  0.00     0.019 C 
ATOM      2  C   UNL     1       0.744 -11.206 -24.657  1.00  0.00     0.094 C 
ENDROOT
BRANCH   1   3
ATOM      3  C   UNL     1      -0.571 -10.008 -26.390  1.00  0.00     0.017 A 
ATOM      4  C   UNL     1      -2.307  -8.497 -27.189  1.00  0.00     0.001 A 
ATOM      5  C   UNL     1      -2.783  -9.481 -28.051  1.00  0.00     0.004 A 
ATOM      6  C   UNL     1      -1.205  -8.757 -26.369  1.00  0.00     0.012 A 
ATOM      7  C   UNL     1      -2.155 -10.726 -28.099  1.00  0.00     0.047 A 
ATOM      8  C   UNL     1      -1.053 -10.983 -27.278  1.00  0.00     0.122 A 
BRANCH   8   9
ATOM      9  O   UNL     1      -0.435 -12.204 -27.358  1.00  0.00    -0.507 OA
ATOM     10  H   UNL     1      -1.107 -12.875 -27.562  1.00  0.00     0.293 HD
ENDBRANCH   8   9
ENDBRANCH   1   3
BRANCH   2  11
ATOM     11  C   UNL     1       1.951 -11.284 -23.816  1.00  0.00     0.328 C 
ATOM     12  O   UNL     1       2.199 -12.186 -23.035  1.00  0.00    -0.247 OA
BRANCH  11  13
ATOM     13  O   UNL     1       2.764 -10.226 -24.011  1.00  0.00    -0.478 OA
ATOM     14  H   UNL     1       3.068 -10.113 -24.929  1.00  0.00     0.297 HD
ENDBRANCH  11  13
ENDBRANCH   2  11
TORSDOF 4
ENDMDL
MODEL 10
REMARK VINA RESULT:      -5.5     13.578     16.053
REMARK SMILES O=C(O)/C=C/c1ccccc1O
REMARK SMILES IDX 5 1 4 2 6 3 8 4 9 5 7 6 10 7 11 8 12 9 2 11 1 12 3 13
REMARK H PARENT 12 10 3 14
ROOT
ATOM      1  C   UNL     1      -5.607  -0.651 -30.535  1.00  0.00     0.019 C 
ATOM      2  C   UNL     1      -6.350   0.156 -31.307  1.00  0.00     0.094 C 
ENDROOT
BRANCH   1   3
ATOM      3  C   UNL     1      -4.370  -0.228 -29.859  1.00  0.00     0.017 A 
ATOM      4  C   UNL     1      -3.346   0.584 -27.802  1.00  0.00     0.001 A 
ATOM      5  C   UNL     1      -2.089   0.549 -28.400  1.00  0.00     0.004 A 
ATOM      6  C   UNL     1      -4.477   0.193 -28.524  1.00  0.00     0.012 A 
ATOM      7  C   UNL     1      -1.960   0.117 -29.720  1.00  0.00     0.047 A 
ATOM      8  C   UNL     1      -3.093  -0.274 -30.440  1.00  0.00     0.122 A 
BRANCH   8   9
ATOM      9  O   UNL     1      -2.941  -0.719 -31.728  1.00  0.00    -0.507 OA
ATOM     10  H   UNL     1      -2.019  -0.568 -31.998  1.00  0.00     0.293 HD
ENDBRANCH   8   9
ENDBRANCH   1   3
BRANCH   2  11
ATOM     11  C   UNL     1      -7.581  -0.364 -31.928  1.00  0.00     0.328 C 
ATOM     12  O   UNL     1      -8.264   0.243 -32.735  1.00  0.00    -0.247 OA
BRANCH  11  13
ATOM     13  O   UNL     1      -7.873  -1.607 -31.494  1.00  0.00    -0.478 OA
ATOM     14  H   UNL     1      -7.507  -1.825 -30.618  1.00  0.00     0.297 HD
ENDBRANCH  11  13
ENDBRANCH   2  11
TORSDOF 4
ENDMDL
