MODEL 1
REMARK VINA RESULT:      -6.2      0.000      0.000
REMARK SMILES C=C(C)[C@@H]1CC=C(C)CC1
REMARK SMILES IDX 8 1 7 2 6 3 5 4 4 5 10 6 9 7 2 8 1 9 3 10
REMARK H PARENT
ROOT
ATOM      1  C   UNL     1       8.578   0.270 -15.507  1.00  0.00     0.039 C 
ATOM      2  C   UNL     1       8.050  -0.382 -16.752  1.00  0.00    -0.077 C 
ATOM      3  C   UNL     1       8.785  -0.483 -17.873  1.00  0.00    -0.027 C 
ATOM      4  C   UNL     1       8.278  -1.088 -19.153  1.00  0.00     0.035 C 
ATOM      5  C   UNL     1       6.749  -1.304 -19.179  1.00  0.00     0.018 C 
ATOM      6  C   UNL     1       6.291  -1.871 -17.822  1.00  0.00     0.013 C 
ATOM      7  C   UNL     1       6.644  -0.921 -16.673  1.00  0.00     0.031 C 
ENDROOT
BRANCH   5   8
ATOM      8  C   UNL     1       6.330  -2.120 -20.404  1.00  0.00    -0.077 C 
ATOM      9  C   UNL     1       5.598  -1.644 -21.426  1.00  0.00     0.008 C 
ATOM     10  C   UNL     1       6.821  -3.546 -20.430  1.00  0.00     0.039 C 
ENDBRANCH   5   8
TORSDOF 1
ENDMDL
MODEL 2
REMARK VINA RESULT:      -5.6      1.007      4.426
REMARK SMILES C=C(C)[C@@H]1CC=C(C)CC1
REMARK SMILES IDX 8 1 7 2 6 3 5 4 4 5 10 6 9 7 2 8 1 9 3 10
REMARK H PARENT
ROOT
ATOM      1  C   UNL     1       5.889  -3.201 -20.627  1.00  0.00     0.039 C 
ATOM      2  C   UNL     1       6.464  -2.327 -19.550  1.00  0.00    -0.077 C 
ATOM      3  C   UNL     1       7.267  -1.285 -19.826  1.00  0.00    -0.027 C 
ATOM      4  C   UNL     1       7.897  -0.414 -18.775  1.00  0.00     0.035 C 
ATOM      5  C   UNL     1       7.803  -0.992 -17.347  1.00  0.00     0.018 C 
ATOM      6  C   UNL     1       6.396  -1.576 -17.123  1.00  0.00     0.013 C 
ATOM      7  C   UNL     1       6.086  -2.685 -18.135  1.00  0.00     0.031 C 
ENDROOT
BRANCH   5   8
ATOM      8  C   UNL     1       8.258   0.034 -16.307  1.00  0.00    -0.077 C 
ATOM      9  C   UNL     1       9.050  -0.240 -15.255  1.00  0.00     0.008 C 
ATOM     10  C   UNL     1       7.779   1.446 -16.539  1.00  0.00     0.039 C 
ENDBRANCH   5   8
TORSDOF 1
ENDMDL
MODEL 3
REMARK VINA RESULT:      -5.4      0.804      4.727
REMARK SMILES C=C(C)[C@@H]1CC=C(C)CC1
REMARK SMILES IDX 8 1 7 2 6 3 5 4 4 5 10 6 9 7 2 8 1 9 3 10
REMARK H PARENT
ROOT
ATOM      1  C   UNL     1       5.993  -1.768 -20.366  1.00  0.00     0.039 C 
ATOM      2  C   UNL     1       6.755  -1.403 -19.126  1.00  0.00    -0.077 C 
ATOM      3  C   UNL     1       6.231  -1.547 -17.896  1.00  0.00    -0.027 C 
ATOM      4  C   UNL     1       6.945  -1.152 -16.632  1.00  0.00     0.035 C 
ATOM      5  C   UNL     1       8.198  -0.282 -16.869  1.00  0.00     0.018 C 
ATOM      6  C   UNL     1       8.994  -0.847 -18.060  1.00  0.00     0.013 C 
ATOM      7  C   UNL     1       8.148  -0.864 -19.337  1.00  0.00     0.031 C 
ENDROOT
BRANCH   5   8
ATOM      8  C   UNL     1       8.996  -0.104 -15.575  1.00  0.00    -0.077 C 
ATOM      9  C   UNL     1       9.137   1.060 -14.916  1.00  0.00     0.008 C 
ATOM     10  C   UNL     1       9.627  -1.360 -15.026  1.00  0.00     0.039 C 
ENDBRANCH   5   8
TORSDOF 1
ENDMDL
MODEL 4
REMARK VINA RESULT:      -5.2     13.402     14.697
REMARK SMILES C=C(C)[C@@H]1CC=C(C)CC1
REMARK SMILES IDX 8 1 7 2 6 3 5 4 4 5 10 6 9 7 2 8 1 9 3 10
REMARK H PARENT
ROOT
ATOM      1  C   UNL     1      -1.852  -0.122 -30.444  1.00  0.00     0.039 C 
ATOM      2  C   UNL     1      -2.636  -0.199 -29.166  1.00  0.00    -0.077 C 
ATOM      3  C   UNL     1      -3.380  -1.273 -28.846  1.00  0.00    -0.027 C 
ATOM      4  C   UNL     1      -4.213  -1.370 -27.598  1.00  0.00     0.035 C 
ATOM      5  C   UNL     1      -4.398  -0.024 -26.864  1.00  0.00     0.018 C 
ATOM      6  C   UNL     1      -3.056   0.732 -26.839  1.00  0.00     0.013 C 
ATOM      7  C   UNL     1      -2.542   1.000 -28.257  1.00  0.00     0.031 C 
ENDROOT
BRANCH   5   8
ATOM      8  C   UNL     1      -5.059  -0.229 -25.499  1.00  0.00    -0.077 C 
ATOM      9  C   UNL     1      -4.595   0.273 -24.341  1.00  0.00     0.008 C 
ATOM     10  C   UNL     1      -6.334  -1.035 -25.511  1.00  0.00     0.039 C 
ENDBRANCH   5   8
TORSDOF 1
ENDMDL
MODEL 5
REMARK VINA RESULT:      -5.2     13.614     16.024
REMARK SMILES C=C(C)[C@@H]1CC=C(C)CC1
REMARK SMILES IDX 8 1 7 2 6 3 5 4 4 5 10 6 9 7 2 8 1 9 3 10
REMARK H PARENT
ROOT
ATOM      1  C   UNL     1      -7.441  -3.000 -28.909  1.00  0.00     0.039 C 
ATOM      2  C   UNL     1      -6.180  -2.188 -28.956  1.00  0.00    -0.077 C 
ATOM      3  C   UNL     1      -5.845  -1.445 -30.025  1.00  0.00    -0.027 C 
ATOM      4  C   UNL     1      -4.571  -0.653 -30.127  1.00  0.00     0.035 C 
ATOM      5  C   UNL     1      -3.530  -1.003 -29.042  1.00  0.00     0.018 C 
ATOM      6  C   UNL     1      -4.240  -1.151 -27.683  1.00  0.00     0.013 C 
ATOM      7  C   UNL     1      -5.305  -2.251 -27.728  1.00  0.00     0.031 C 
ENDROOT
BRANCH   5   8
ATOM      8  C   UNL     1      -2.360  -0.017 -29.065  1.00  0.00    -0.077 C 
ATOM      9  C   UNL     1      -1.513   0.142 -30.097  1.00  0.00     0.008 C 
ATOM     10  C   UNL     1      -2.206   0.834 -27.828  1.00  0.00     0.039 C 
ENDBRANCH   5   8
TORSDOF 1
ENDMDL
MODEL 6
REMARK VINA RESULT:      -5.2     14.478     17.839
REMARK SMILES C=C(C)[C@@H]1CC=C(C)CC1
REMARK SMILES IDX 8 1 7 2 6 3 5 4 4 5 10 6 9 7 2 8 1 9 3 10
REMARK H PARENT
ROOT
ATOM      1  C   UNL     1      -7.702   1.126 -32.951  1.00  0.00     0.039 C 
ATOM      2  C   UNL     1      -6.614   0.615 -32.053  1.00  0.00    -0.077 C 
ATOM      3  C   UNL     1      -6.781  -0.464 -31.268  1.00  0.00    -0.027 C 
ATOM      4  C   UNL     1      -5.732  -0.981 -30.323  1.00  0.00     0.035 C 
ATOM      5  C   UNL     1      -4.562   0.000 -30.092  1.00  0.00     0.018 C 
ATOM      6  C   UNL     1      -4.149   0.628 -31.436  1.00  0.00     0.013 C 
ATOM      7  C   UNL     1      -5.315   1.382 -32.081  1.00  0.00     0.031 C 
ENDROOT
BRANCH   5   8
ATOM      8  C   UNL     1      -3.432  -0.668 -29.306  1.00  0.00    -0.077 C 
ATOM      9  C   UNL     1      -3.512  -1.881 -28.731  1.00  0.00     0.008 C 
ATOM     10  C   UNL     1      -2.148   0.120 -29.224  1.00  0.00     0.039 C 
ENDBRANCH   5   8
TORSDOF 1
ENDMDL
MODEL 7
REMARK VINA RESULT:      -5.1      1.066      4.922
REMARK SMILES C=C(C)[C@@H]1CC=C(C)CC1
REMARK SMILES IDX 8 1 7 2 6 3 5 4 4 5 10 6 9 7 2 8 1 9 3 10
REMARK H PARENT
ROOT
ATOM      1  C   UNL     1       6.022  -1.787 -20.114  1.00  0.00     0.039 C 
ATOM      2  C   UNL     1       6.854  -1.203 -19.010  1.00  0.00    -0.077 C 
ATOM      3  C   UNL     1       6.306  -0.713 -17.884  1.00  0.00    -0.027 C 
ATOM      4  C   UNL     1       7.101  -0.081 -16.775  1.00  0.00     0.035 C 
ATOM      5  C   UNL     1       8.560   0.246 -17.160  1.00  0.00     0.018 C 
ATOM      6  C   UNL     1       9.152  -0.929 -17.960  1.00  0.00     0.013 C 
ATOM      7  C   UNL     1       8.345  -1.198 -19.235  1.00  0.00     0.031 C 
ENDROOT
BRANCH   5   8
ATOM      8  C   UNL     1       9.369   0.676 -15.934  1.00  0.00    -0.077 C 
ATOM      9  C   UNL     1      10.337  -0.059 -15.360  1.00  0.00     0.008 C 
ATOM     10  C   UNL     1       9.037   2.042 -15.386  1.00  0.00     0.039 C 
ENDBRANCH   5   8
TORSDOF 1
ENDMDL
MODEL 8
REMARK VINA RESULT:      -5.1      2.671      5.304
REMARK SMILES C=C(C)[C@@H]1CC=C(C)CC1
REMARK SMILES IDX 8 1 7 2 6 3 5 4 4 5 10 6 9 7 2 8 1 9 3 10
REMARK H PARENT
ROOT
ATOM      1  C   UNL     1       6.105  -1.775 -16.807  1.00  0.00     0.039 C 
ATOM      2  C   UNL     1       7.367  -1.004 -16.552  1.00  0.00    -0.077 C 
ATOM      3  C   UNL     1       8.396  -1.523 -15.859  1.00  0.00    -0.027 C 
ATOM      4  C   UNL     1       9.657  -0.768 -15.546  1.00  0.00     0.035 C 
ATOM      5  C   UNL     1       9.558   0.751 -15.809  1.00  0.00     0.018 C 
ATOM      6  C   UNL     1       8.827   0.991 -17.143  1.00  0.00     0.013 C 
ATOM      7  C   UNL     1       7.417   0.393 -17.120  1.00  0.00     0.031 C 
ENDROOT
BRANCH   5   8
ATOM      8  C   UNL     1      10.929   1.421 -15.685  1.00  0.00    -0.077 C 
ATOM      9  C   UNL     1      11.122   2.719 -15.395  1.00  0.00     0.008 C 
ATOM     10  C   UNL     1      12.115   0.510 -15.884  1.00  0.00     0.039 C 
ENDBRANCH   5   8
TORSDOF 1
ENDMDL
MODEL 9
REMARK VINA RESULT:      -5.1     13.993     14.733
REMARK SMILES C=C(C)[C@@H]1CC=C(C)CC1
REMARK SMILES IDX 8 1 7 2 6 3 5 4 4 5 10 6 9 7 2 8 1 9 3 10
REMARK H PARENT
ROOT
ATOM      1  C   UNL     1      -5.990  -0.953 -24.381  1.00  0.00     0.039 C 
ATOM      2  C   UNL     1      -5.217  -0.872 -25.665  1.00  0.00    -0.077 C 
ATOM      3  C   UNL     1      -4.350   0.124 -25.918  1.00  0.00    -0.027 C 
ATOM      4  C   UNL     1      -3.592   0.264 -27.208  1.00  0.00     0.035 C 
ATOM      5  C   UNL     1      -4.113  -0.646 -28.341  1.00  0.00     0.018 C 
ATOM      6  C   UNL     1      -4.418  -2.044 -27.774  1.00  0.00     0.013 C 
ATOM      7  C   UNL     1      -5.469  -1.977 -26.661  1.00  0.00     0.031 C 
ENDROOT
BRANCH   5   8
ATOM      8  C   UNL     1      -3.169  -0.620 -29.546  1.00  0.00    -0.077 C 
ATOM      9  C   UNL     1      -3.408  -1.232 -30.719  1.00  0.00     0.008 C 
ATOM     10  C   UNL     1      -1.907   0.185 -29.361  1.00  0.00     0.039 C 
ENDBRANCH   5   8
TORSDOF 1
ENDMDL
MODEL 10
REMARK VINA RESULT:      -5.1     13.952     15.644
REMARK SMILES C=C(C)[C@@H]1CC=C(C)CC1
REMARK SMILES IDX 8 1 7 2 6 3 5 4 4 5 10 6 9 7 2 8 1 9 3 10
REMARK H PARENT
ROOT
ATOM      1  C   UNL     1      -3.451  -1.904 -28.867  1.00  0.00     0.039 C 
ATOM      2  C   UNL     1      -3.401  -0.404 -28.856  1.00  0.00    -0.077 C 
ATOM      3  C   UNL     1      -2.463   0.276 -28.175  1.00  0.00    -0.027 C 
ATOM      4  C   UNL     1      -2.405   1.777 -28.103  1.00  0.00     0.035 C 
ATOM      5  C   UNL     1      -3.683   2.476 -28.614  1.00  0.00     0.018 C 
ATOM      6  C   UNL     1      -4.164   1.783 -29.903  1.00  0.00     0.013 C 
ATOM      7  C   UNL     1      -4.466   0.301 -29.658  1.00  0.00     0.031 C 
ENDROOT
BRANCH   5   8
ATOM      8  C   UNL     1      -3.476   3.988 -28.723  1.00  0.00    -0.077 C 
ATOM      9  C   UNL     1      -2.618   4.700 -27.971  1.00  0.00     0.008 C 
ATOM     10  C   UNL     1      -4.296   4.679 -29.785  1.00  0.00     0.039 C 
ENDBRANCH   5   8
TORSDOF 1
ENDMDL
