MODEL 1
REMARK VINA RESULT:      -7.4      0.000      0.000
REMARK SMILES CC(C)=CCC/C(C)=C/C=O
REMARK SMILES IDX 5 1 4 2 2 3 1 4 3 5 6 6 7 7 9 8 8 9 10 10 11 11
REMARK H PARENT
ROOT
ATOM      1  C   UNL     1       6.346  -3.022 -20.872  1.00  0.00     0.032 C 
ENDROOT
BRANCH   1   2
ATOM      2  C   UNL     1       6.109  -2.864 -19.395  1.00  0.00    -0.028 C 
ATOM      3  C   UNL     1       6.622  -1.927 -18.573  1.00  0.00    -0.080 C 
ATOM      4  C   UNL     1       7.595  -0.855 -18.981  1.00  0.00     0.039 C 
ATOM      5  C   UNL     1       6.248  -1.898 -17.113  1.00  0.00     0.039 C 
ENDBRANCH   1   2
BRANCH   1   6
ATOM      6  C   UNL     1       5.885  -1.780 -21.645  1.00  0.00     0.035 C 
BRANCH   6   7
ATOM      7  C   UNL     1       5.003  -2.121 -22.836  1.00  0.00    -0.070 C 
ATOM      8  C   UNL     1       5.120  -1.407 -23.972  1.00  0.00     0.042 C 
ATOM      9  C   UNL     1       4.077  -3.290 -22.626  1.00  0.00     0.039 C 
BRANCH   8  10
ATOM     10  C   UNL     1       4.333  -1.600 -25.209  1.00  0.00     0.252 C 
ATOM     11  O   UNL     1       3.187  -1.178 -25.302  1.00  0.00    -0.299 OA
ENDBRANCH   8  10
ENDBRANCH   6   7
ENDBRANCH   1   6
TORSDOF 4
ENDMDL
MODEL 2
REMARK VINA RESULT:      -7.1      3.071      5.979
REMARK SMILES CC(C)=CCC/C(C)=C/C=O
REMARK SMILES IDX 5 1 4 2 2 3 1 4 3 5 6 6 7 7 9 8 8 9 10 10 11 11
REMARK H PARENT
ROOT
ATOM      1  C   UNL     1       5.939  -2.341 -20.415  1.00  0.00     0.032 C 
ENDROOT
BRANCH   1   2
ATOM      2  C   UNL     1       5.851  -1.791 -21.812  1.00  0.00    -0.028 C 
ATOM      3  C   UNL     1       5.007  -2.165 -22.795  1.00  0.00    -0.080 C 
ATOM      4  C   UNL     1       3.992  -3.270 -22.690  1.00  0.00     0.039 C 
ATOM      5  C   UNL     1       5.035  -1.476 -24.135  1.00  0.00     0.039 C 
ENDBRANCH   1   2
BRANCH   1   6
ATOM      6  C   UNL     1       7.317  -2.072 -19.797  1.00  0.00     0.035 C 
BRANCH   6   7
ATOM      7  C   UNL     1       7.241  -1.230 -18.533  1.00  0.00    -0.070 C 
ATOM      8  C   UNL     1       8.090  -0.197 -18.374  1.00  0.00     0.042 C 
ATOM      9  C   UNL     1       6.160  -1.633 -17.565  1.00  0.00     0.039 C 
BRANCH   8  10
ATOM     10  C   UNL     1       8.156   0.708 -17.206  1.00  0.00     0.252 C 
ATOM     11  O   UNL     1       7.259   1.510 -16.976  1.00  0.00    -0.299 OA
ENDBRANCH   8  10
ENDBRANCH   6   7
ENDBRANCH   1   6
TORSDOF 4
ENDMDL
MODEL 3
REMARK VINA RESULT:      -6.7      2.886      5.744
REMARK SMILES CC(C)=CCC/C(C)=C/C=O
REMARK SMILES IDX 5 1 4 2 2 3 1 4 3 5 6 6 7 7 9 8 8 9 10 10 11 11
REMARK H PARENT
ROOT
ATOM      1  C   UNL     1       5.212  -2.790 -22.164  1.00  0.00     0.032 C 
ENDROOT
BRANCH   1   2
ATOM      2  C   UNL     1       4.052  -2.309 -22.991  1.00  0.00    -0.028 C 
ATOM      3  C   UNL     1       4.093  -1.614 -24.145  1.00  0.00    -0.080 C 
ATOM      4  C   UNL     1       5.348  -1.133 -24.821  1.00  0.00     0.039 C 
ATOM      5  C   UNL     1       2.822  -1.241 -24.863  1.00  0.00     0.039 C 
ENDBRANCH   1   2
BRANCH   1   6
ATOM      6  C   UNL     1       5.887  -1.629 -21.422  1.00  0.00     0.035 C 
BRANCH   6   7
ATOM      7  C   UNL     1       6.290  -1.993 -20.002  1.00  0.00    -0.070 C 
ATOM      8  C   UNL     1       6.679  -1.020 -19.155  1.00  0.00     0.042 C 
ATOM      9  C   UNL     1       6.178  -3.456 -19.664  1.00  0.00     0.039 C 
BRANCH   8  10
ATOM     10  C   UNL     1       7.113  -1.205 -17.753  1.00  0.00     0.252 C 
ATOM     11  O   UNL     1       6.295  -1.291 -16.845  1.00  0.00    -0.299 OA
ENDBRANCH   8  10
ENDBRANCH   6   7
ENDBRANCH   1   6
TORSDOF 4
ENDMDL
MODEL 4
REMARK VINA RESULT:      -6.2      1.947      3.154
REMARK SMILES CC(C)=CCC/C(C)=C/C=O
REMARK SMILES IDX 5 1 4 2 2 3 1 4 3 5 6 6 7 7 9 8 8 9 10 10 11 11
REMARK H PARENT
ROOT
ATOM      1  C   UNL     1       8.099  -0.763 -19.104  1.00  0.00     0.032 C 
ENDROOT
BRANCH   1   2
ATOM      2  C   UNL     1       8.624  -0.719 -17.695  1.00  0.00    -0.028 C 
ATOM      3  C   UNL     1       8.307   0.160 -16.723  1.00  0.00    -0.080 C 
ATOM      4  C   UNL     1       7.374   1.329 -16.884  1.00  0.00     0.039 C 
ATOM      5  C   UNL     1       8.908   0.034 -15.347  1.00  0.00     0.039 C 
ENDBRANCH   1   2
BRANCH   1   6
ATOM      6  C   UNL     1       6.676  -1.333 -19.150  1.00  0.00     0.035 C 
BRANCH   6   7
ATOM      7  C   UNL     1       6.401  -2.130 -20.416  1.00  0.00    -0.070 C 
ATOM      8  C   UNL     1       5.462  -1.699 -21.279  1.00  0.00     0.042 C 
ATOM      9  C   UNL     1       7.265  -3.350 -20.597  1.00  0.00     0.039 C 
BRANCH   8  10
ATOM     10  C   UNL     1       5.066  -2.360 -22.541  1.00  0.00     0.252 C 
ATOM     11  O   UNL     1       4.177  -1.897 -23.245  1.00  0.00    -0.299 OA
ENDBRANCH   8  10
ENDBRANCH   6   7
ENDBRANCH   1   6
TORSDOF 4
ENDMDL
MODEL 5
REMARK VINA RESULT:      -6.2      1.771      2.930
REMARK SMILES CC(C)=CCC/C(C)=C/C=O
REMARK SMILES IDX 5 1 4 2 2 3 1 4 3 5 6 6 7 7 9 8 8 9 10 10 11 11
REMARK H PARENT
ROOT
ATOM      1  C   UNL     1       5.080  -2.395 -22.979  1.00  0.00     0.032 C 
ENDROOT
BRANCH   1   2
ATOM      2  C   UNL     1       5.623  -1.628 -21.804  1.00  0.00    -0.028 C 
ATOM      3  C   UNL     1       6.174  -2.124 -20.678  1.00  0.00    -0.080 C 
ATOM      4  C   UNL     1       6.313  -3.586 -20.354  1.00  0.00     0.039 C 
ATOM      5  C   UNL     1       6.701  -1.201 -19.610  1.00  0.00     0.039 C 
ENDBRANCH   1   2
BRANCH   1   6
ATOM      6  C   UNL     1       3.995  -1.597 -23.712  1.00  0.00     0.035 C 
BRANCH   6   7
ATOM      7  C   UNL     1       4.402  -1.211 -25.126  1.00  0.00    -0.070 C 
ATOM      8  C   UNL     1       5.353  -0.274 -25.307  1.00  0.00     0.042 C 
ATOM      9  C   UNL     1       3.697  -1.967 -26.219  1.00  0.00     0.039 C 
BRANCH   8  10
ATOM     10  C   UNL     1       5.852   0.222 -26.608  1.00  0.00     0.252 C 
ATOM     11  O   UNL     1       6.912  -0.180 -27.074  1.00  0.00    -0.299 OA
ENDBRANCH   8  10
ENDBRANCH   6   7
ENDBRANCH   1   6
TORSDOF 4
ENDMDL
MODEL 6
REMARK VINA RESULT:      -6.1      4.422      7.106
REMARK SMILES CC(C)=CCC/C(C)=C/C=O
REMARK SMILES IDX 5 1 4 2 2 3 1 4 3 5 6 6 7 7 9 8 8 9 10 10 11 11
REMARK H PARENT
ROOT
ATOM      1  C   UNL     1       6.891  -1.290 -18.384  1.00  0.00     0.032 C 
ENDROOT
BRANCH   1   2
ATOM      2  C   UNL     1       6.175  -1.288 -19.708  1.00  0.00    -0.028 C 
ATOM      3  C   UNL     1       6.264  -2.201 -20.695  1.00  0.00    -0.080 C 
ATOM      4  C   UNL     1       7.160  -3.409 -20.680  1.00  0.00     0.039 C 
ATOM      5  C   UNL     1       5.442  -2.058 -21.950  1.00  0.00     0.039 C 
ENDBRANCH   1   2
BRANCH   1   6
ATOM      6  C   UNL     1       8.210  -0.513 -18.465  1.00  0.00     0.035 C 
BRANCH   6   7
ATOM      7  C   UNL     1       8.430   0.399 -17.268  1.00  0.00    -0.070 C 
ATOM      8  C   UNL     1       9.599   0.345 -16.601  1.00  0.00     0.042 C 
ATOM      9  C   UNL     1       7.287   1.329 -16.959  1.00  0.00     0.039 C 
BRANCH   8  10
ATOM     10  C   UNL     1       9.966   1.149 -15.415  1.00  0.00     0.252 C 
ATOM     11  O   UNL     1      10.645   2.163 -15.525  1.00  0.00    -0.299 OA
ENDBRANCH   8  10
ENDBRANCH   6   7
ENDBRANCH   1   6
TORSDOF 4
ENDMDL
MODEL 7
REMARK VINA RESULT:      -6.0     10.878     13.041
REMARK SMILES CC(C)=CCC/C(C)=C/C=O
REMARK SMILES IDX 5 1 4 2 2 3 1 4 3 5 6 6 7 7 9 8 8 9 10 10 11 11
REMARK H PARENT
ROOT
ATOM      1  C   UNL     1      -1.330 -11.175 -27.554  1.00  0.00     0.032 C 
ENDROOT
BRANCH   1   2
ATOM      2  C   UNL     1      -0.423 -10.624 -26.487  1.00  0.00    -0.028 C 
ATOM      3  C   UNL     1       0.446 -11.303 -25.713  1.00  0.00    -0.080 C 
ATOM      4  C   UNL     1       0.649 -12.794 -25.739  1.00  0.00     0.039 C 
ATOM      5  C   UNL     1       1.308 -10.581 -24.709  1.00  0.00     0.039 C 
ENDBRANCH   1   2
BRANCH   1   6
ATOM      6  C   UNL     1      -2.164 -10.063 -28.203  1.00  0.00     0.035 C 
BRANCH   6   7
ATOM      7  C   UNL     1      -3.442  -9.761 -27.435  1.00  0.00    -0.070 C 
ATOM      8  C   UNL     1      -4.312 -10.757 -27.183  1.00  0.00     0.042 C 
ATOM      9  C   UNL     1      -3.593  -8.331 -26.991  1.00  0.00     0.039 C 
BRANCH   8  10
ATOM     10  C   UNL     1      -5.600 -10.631 -26.465  1.00  0.00     0.252 C 
ATOM     11  O   UNL     1      -5.735 -11.068 -25.329  1.00  0.00    -0.299 OA
ENDBRANCH   8  10
ENDBRANCH   6   7
ENDBRANCH   1   6
TORSDOF 4
ENDMDL
MODEL 8
REMARK VINA RESULT:      -5.7      3.756      5.642
REMARK SMILES CC(C)=CCC/C(C)=C/C=O
REMARK SMILES IDX 5 1 4 2 2 3 1 4 3 5 6 6 7 7 9 8 8 9 10 10 11 11
REMARK H PARENT
ROOT
ATOM      1  C   UNL     1       8.399  -0.341 -16.225  1.00  0.00     0.032 C 
ENDROOT
BRANCH   1   2
ATOM      2  C   UNL     1       9.902  -0.312 -16.276  1.00  0.00    -0.028 C 
ATOM      3  C   UNL     1      10.728   0.602 -15.729  1.00  0.00    -0.080 C 
ATOM      4  C   UNL     1      10.288   1.829 -14.978  1.00  0.00     0.039 C 
ATOM      5  C   UNL     1      12.224   0.455 -15.850  1.00  0.00     0.039 C 
ENDBRANCH   1   2
BRANCH   1   6
ATOM      6  C   UNL     1       7.789   0.018 -17.585  1.00  0.00     0.035 C 
BRANCH   6   7
ATOM      7  C   UNL     1       6.968  -1.116 -18.180  1.00  0.00    -0.070 C 
ATOM      8  C   UNL     1       7.042  -1.364 -19.502  1.00  0.00     0.042 C 
ATOM      9  C   UNL     1       6.150  -1.897 -17.186  1.00  0.00     0.039 C 
BRANCH   8  10
ATOM     10  C   UNL     1       6.304  -2.414 -20.236  1.00  0.00     0.252 C 
ATOM     11  O   UNL     1       6.740  -3.556 -20.315  1.00  0.00    -0.299 OA
ENDBRANCH   8  10
ENDBRANCH   6   7
ENDBRANCH   1   6
TORSDOF 4
ENDMDL
MODEL 9
REMARK VINA RESULT:      -5.6      5.699      8.536
REMARK SMILES CC(C)=CCC/C(C)=C/C=O
REMARK SMILES IDX 5 1 4 2 2 3 1 4 3 5 6 6 7 7 9 8 8 9 10 10 11 11
REMARK H PARENT
ROOT
ATOM      1  C   UNL     1       8.473   0.338 -17.680  1.00  0.00     0.032 C 
ENDROOT
BRANCH   1   2
ATOM      2  C   UNL     1       7.953  -0.511 -18.808  1.00  0.00    -0.028 C 
ATOM      3  C   UNL     1       6.923  -1.380 -18.779  1.00  0.00    -0.080 C 
ATOM      4  C   UNL     1       6.102  -1.709 -17.563  1.00  0.00     0.039 C 
ATOM      5  C   UNL     1       6.513  -2.127 -20.022  1.00  0.00     0.039 C 
ENDBRANCH   1   2
BRANCH   1   6
ATOM      6  C   UNL     1       9.441  -0.452 -16.790  1.00  0.00     0.035 C 
BRANCH   6   7
ATOM      7  C   UNL     1      10.223   0.438 -15.836  1.00  0.00    -0.070 C 
ATOM      8  C   UNL     1      11.515   0.159 -15.582  1.00  0.00     0.042 C 
ATOM      9  C   UNL     1       9.450   1.602 -15.277  1.00  0.00     0.039 C 
BRANCH   8  10
ATOM     10  C   UNL     1      12.408   0.912 -14.674  1.00  0.00     0.252 C 
ATOM     11  O   UNL     1      12.391   0.716 -13.465  1.00  0.00    -0.299 OA
ENDBRANCH   8  10
ENDBRANCH   6   7
ENDBRANCH   1   6
TORSDOF 4
ENDMDL
MODEL 10
REMARK VINA RESULT:      -5.4      6.244      9.128
REMARK SMILES CC(C)=CCC/C(C)=C/C=O
REMARK SMILES IDX 5 1 4 2 2 3 1 4 3 5 6 6 7 7 9 8 8 9 10 10 11 11
REMARK H PARENT
ROOT
ATOM      1  C   UNL     1       9.900  -0.236 -15.409  1.00  0.00     0.032 C 
ENDROOT
BRANCH   1   2
ATOM      2  C   UNL     1       9.346  -0.635 -16.750  1.00  0.00    -0.028 C 
ATOM      3  C   UNL     1       8.302  -0.091 -17.405  1.00  0.00    -0.080 C 
ATOM      4  C   UNL     1       7.436   1.023 -16.883  1.00  0.00     0.039 C 
ATOM      5  C   UNL     1       7.902  -0.597 -18.768  1.00  0.00     0.039 C 
ENDBRANCH   1   2
BRANCH   1   6
ATOM      6  C   UNL     1      11.412   0.012 -15.482  1.00  0.00     0.035 C 
BRANCH   6   7
ATOM      7  C   UNL     1      11.759   1.481 -15.673  1.00  0.00    -0.070 C 
ATOM      8  C   UNL     1      12.934   1.814 -16.240  1.00  0.00     0.042 C 
ATOM      9  C   UNL     1      10.697   2.448 -15.220  1.00  0.00     0.039 C 
BRANCH   8  10
ATOM     10  C   UNL     1      13.427   3.187 -16.484  1.00  0.00     0.252 C 
ATOM     11  O   UNL     1      13.831   3.526 -17.589  1.00  0.00    -0.299 OA
ENDBRANCH   8  10
ENDBRANCH   6   7
ENDBRANCH   1   6
TORSDOF 4
ENDMDL
