MODEL 1
REMARK VINA RESULT:      -5.4      0.000      0.000
REMARK SMILES COc1cc(C)ccc1O
REMARK SMILES IDX 6 1 5 2 4 3 3 4 9 5 8 6 7 7 2 8 1 9 10 10
REMARK H PARENT 10 11
ROOT
ATOM      1  C   UNL     1      -4.833 -10.422 -27.322  1.00  0.00     0.044 C 
ATOM      2  C   UNL     1      -3.383 -10.034 -27.337  1.00  0.00    -0.047 A 
ATOM      3  C   UNL     1      -2.375 -11.010 -27.259  1.00  0.00     0.053 A 
ATOM      4  C   UNL     1      -1.029 -10.637 -27.276  1.00  0.00     0.160 A 
ATOM      5  C   UNL     1      -0.706  -9.279 -27.375  1.00  0.00     0.157 A 
ATOM      6  C   UNL     1      -1.689  -8.301 -27.454  1.00  0.00     0.050 A 
ATOM      7  C   UNL     1      -3.030  -8.680 -27.435  1.00  0.00     0.007 A 
ENDROOT
BRANCH   4   8
ATOM      8  O   UNL     1       0.049 -11.483 -27.204  1.00  0.00    -0.493 OA
ATOM      9  C   UNL     1       0.462 -11.876 -25.900  1.00  0.00     0.278 C 
ENDBRANCH   4   8
BRANCH   5  10
ATOM     10  O   UNL     1       0.603  -8.883 -27.395  1.00  0.00    -0.504 OA
ATOM     11  H   UNL     1       0.887  -9.009 -28.320  1.00  0.00     0.293 HD
ENDBRANCH   5  10
TORSDOF 2
ENDMDL
MODEL 2
REMARK VINA RESULT:      -5.2     10.498     10.861
REMARK SMILES COc1cc(C)ccc1O
REMARK SMILES IDX 6 1 5 2 4 3 3 4 9 5 8 6 7 7 2 8 1 9 10 10
REMARK H PARENT 10 11
ROOT
ATOM      1  C   UNL     1      -4.239  -0.022 -26.212  1.00  0.00     0.044 C 
ATOM      2  C   UNL     1      -3.763  -0.023 -27.635  1.00  0.00    -0.047 A 
ATOM      3  C   UNL     1      -4.625  -0.385 -28.684  1.00  0.00     0.053 A 
ATOM      4  C   UNL     1      -4.171  -0.381 -30.004  1.00  0.00     0.160 A 
ATOM      5  C   UNL     1      -2.846  -0.010 -30.261  1.00  0.00     0.157 A 
ATOM      6  C   UNL     1      -1.980   0.352 -29.237  1.00  0.00     0.050 A 
ATOM      7  C   UNL     1      -2.440   0.344 -27.922  1.00  0.00     0.007 A 
ENDROOT
BRANCH   4   8
ATOM      8  O   UNL     1      -4.903  -0.713 -31.116  1.00  0.00    -0.493 OA
ATOM      9  C   UNL     1      -6.258  -0.278 -31.138  1.00  0.00     0.278 C 
ENDBRANCH   4   8
BRANCH   5  10
ATOM     10  O   UNL     1      -2.372   0.005 -31.545  1.00  0.00    -0.504 OA
ATOM     11  H   UNL     1      -2.995  -0.555 -32.046  1.00  0.00     0.293 HD
ENDBRANCH   5  10
TORSDOF 2
ENDMDL
MODEL 3
REMARK VINA RESULT:      -5.2      9.266     10.729
REMARK SMILES COc1cc(C)ccc1O
REMARK SMILES IDX 6 1 5 2 4 3 3 4 9 5 8 6 7 7 2 8 1 9 10 10
REMARK H PARENT 10 11
ROOT
ATOM      1  C   UNL     1      -5.299  -1.412 -25.906  1.00  0.00     0.044 C 
ATOM      2  C   UNL     1      -4.372  -0.945 -26.989  1.00  0.00    -0.047 A 
ATOM      3  C   UNL     1      -3.796   0.336 -26.943  1.00  0.00     0.053 A 
ATOM      4  C   UNL     1      -2.933   0.760 -27.955  1.00  0.00     0.160 A 
ATOM      5  C   UNL     1      -2.653  -0.113 -29.012  1.00  0.00     0.157 A 
ATOM      6  C   UNL     1      -3.213  -1.383 -29.075  1.00  0.00     0.050 A 
ATOM      7  C   UNL     1      -4.073  -1.799 -28.062  1.00  0.00     0.007 A 
ENDROOT
BRANCH   4   8
ATOM      8  O   UNL     1      -2.307   1.979 -28.033  1.00  0.00    -0.493 OA
ATOM      9  C   UNL     1      -3.131   3.096 -28.347  1.00  0.00     0.278 C 
ENDBRANCH   4   8
BRANCH   5  10
ATOM     10  O   UNL     1      -1.811   0.272 -30.019  1.00  0.00    -0.504 OA
ATOM     11  H   UNL     1      -2.127  -0.212 -30.806  1.00  0.00     0.293 HD
ENDBRANCH   5  10
TORSDOF 2
ENDMDL
MODEL 4
REMARK VINA RESULT:      -5.2     13.871     15.088
REMARK SMILES COc1cc(C)ccc1O
REMARK SMILES IDX 6 1 5 2 4 3 3 4 9 5 8 6 7 7 2 8 1 9 10 10
REMARK H PARENT 10 11
ROOT
ATOM      1  C   UNL     1       7.756   1.151 -17.230  1.00  0.00     0.044 C 
ATOM      2  C   UNL     1       7.248  -0.220 -17.569  1.00  0.00    -0.047 A 
ATOM      3  C   UNL     1       7.363  -0.730 -18.873  1.00  0.00     0.053 A 
ATOM      4  C   UNL     1       6.889  -2.007 -19.177  1.00  0.00     0.160 A 
ATOM      5  C   UNL     1       6.302  -2.768 -18.159  1.00  0.00     0.157 A 
ATOM      6  C   UNL     1       6.180  -2.281 -16.864  1.00  0.00     0.050 A 
ATOM      7  C   UNL     1       6.654  -1.005 -16.569  1.00  0.00     0.007 A 
ENDROOT
BRANCH   4   8
ATOM      8  O   UNL     1       6.936  -2.622 -20.402  1.00  0.00    -0.493 OA
ATOM      9  C   UNL     1       5.907  -2.280 -21.325  1.00  0.00     0.278 C 
ENDBRANCH   4   8
BRANCH   5  10
ATOM     10  O   UNL     1       5.828  -4.024 -18.425  1.00  0.00    -0.504 OA
ATOM     11  H   UNL     1       6.098  -4.559 -17.655  1.00  0.00     0.293 HD
ENDBRANCH   5  10
TORSDOF 2
ENDMDL
MODEL 5
REMARK VINA RESULT:      -5.2      1.763      3.467
REMARK SMILES COc1cc(C)ccc1O
REMARK SMILES IDX 6 1 5 2 4 3 3 4 9 5 8 6 7 7 2 8 1 9 10 10
REMARK H PARENT 10 11
ROOT
ATOM      1  C   UNL     1       0.762 -11.721 -25.457  1.00  0.00     0.044 C 
ATOM      2  C   UNL     1      -0.120 -10.794 -26.242  1.00  0.00    -0.047 A 
ATOM      3  C   UNL     1      -1.390 -11.205 -26.680  1.00  0.00     0.053 A 
ATOM      4  C   UNL     1      -2.203 -10.334 -27.407  1.00  0.00     0.160 A 
ATOM      5  C   UNL     1      -1.730  -9.047 -27.688  1.00  0.00     0.157 A 
ATOM      6  C   UNL     1      -0.478  -8.622 -27.262  1.00  0.00     0.050 A 
ATOM      7  C   UNL     1       0.328  -9.498 -26.538  1.00  0.00     0.007 A 
ENDROOT
BRANCH   4   8
ATOM      8  O   UNL     1      -3.456 -10.607 -27.895  1.00  0.00    -0.493 OA
ATOM      9  C   UNL     1      -4.539 -10.450 -26.986  1.00  0.00     0.278 C 
ENDBRANCH   4   8
BRANCH   5  10
ATOM     10  O   UNL     1      -2.503  -8.169 -28.398  1.00  0.00    -0.504 OA
ATOM     11  H   UNL     1      -2.223  -8.286 -29.326  1.00  0.00     0.293 HD
ENDBRANCH   5  10
TORSDOF 2
ENDMDL
MODEL 6
REMARK VINA RESULT:      -5.1     13.416     14.291
REMARK SMILES COc1cc(C)ccc1O
REMARK SMILES IDX 6 1 5 2 4 3 3 4 9 5 8 6 7 7 2 8 1 9 10 10
REMARK H PARENT 10 11
ROOT
ATOM      1  C   UNL     1      -6.003   1.342 -31.969  1.00  0.00     0.044 C 
ATOM      2  C   UNL     1      -7.425   0.977 -32.277  1.00  0.00    -0.047 A 
ATOM      3  C   UNL     1      -8.356   0.763 -31.246  1.00  0.00     0.053 A 
ATOM      4  C   UNL     1      -9.677   0.426 -31.545  1.00  0.00     0.160 A 
ATOM      5  C   UNL     1     -10.056   0.307 -32.886  1.00  0.00     0.157 A 
ATOM      6  C   UNL     1      -9.151   0.515 -33.919  1.00  0.00     0.050 A 
ATOM      7  C   UNL     1      -7.834   0.850 -33.613  1.00  0.00     0.007 A 
ENDROOT
BRANCH   4   8
ATOM      8  O   UNL     1     -10.680   0.190 -30.639  1.00  0.00    -0.493 OA
ATOM      9  C   UNL     1     -10.311  -0.494 -29.446  1.00  0.00     0.278 C 
ENDBRANCH   4   8
BRANCH   5  10
ATOM     10  O   UNL     1     -11.344  -0.021 -33.211  1.00  0.00    -0.504 OA
ATOM     11  H   UNL     1     -11.260  -0.643 -33.959  1.00  0.00     0.293 HD
ENDBRANCH   5  10
TORSDOF 2
ENDMDL
MODEL 7
REMARK VINA RESULT:      -5.0      9.428     10.923
REMARK SMILES COc1cc(C)ccc1O
REMARK SMILES IDX 6 1 5 2 4 3 3 4 9 5 8 6 7 7 2 8 1 9 10 10
REMARK H PARENT 10 11
ROOT
ATOM      1  C   UNL     1      -4.622  -2.266 -27.520  1.00  0.00     0.044 C 
ATOM      2  C   UNL     1      -4.324  -1.433 -28.732  1.00  0.00    -0.047 A 
ATOM      3  C   UNL     1      -5.327  -1.139 -29.671  1.00  0.00     0.053 A 
ATOM      4  C   UNL     1      -5.038  -0.362 -30.794  1.00  0.00     0.160 A 
ATOM      5  C   UNL     1      -3.735   0.119 -30.964  1.00  0.00     0.157 A 
ATOM      6  C   UNL     1      -2.730  -0.160 -30.046  1.00  0.00     0.050 A 
ATOM      7  C   UNL     1      -3.026  -0.937 -28.929  1.00  0.00     0.007 A 
ENDROOT
BRANCH   4   8
ATOM      8  O   UNL     1      -5.919  -0.005 -31.784  1.00  0.00    -0.493 OA
ATOM      9  C   UNL     1      -7.274   0.181 -31.391  1.00  0.00     0.278 C 
ENDBRANCH   4   8
BRANCH   5  10
ATOM     10  O   UNL     1      -3.421   0.885 -32.054  1.00  0.00    -0.504 OA
ATOM     11  H   UNL     1      -4.011   0.563 -32.762  1.00  0.00     0.293 HD
ENDBRANCH   5  10
TORSDOF 2
ENDMDL
MODEL 8
REMARK VINA RESULT:      -4.9     14.003     15.163
REMARK SMILES COc1cc(C)ccc1O
REMARK SMILES IDX 6 1 5 2 4 3 3 4 9 5 8 6 7 7 2 8 1 9 10 10
REMARK H PARENT 10 11
ROOT
ATOM      1  C   UNL     1       6.334  -2.482 -21.386  1.00  0.00     0.044 C 
ATOM      2  C   UNL     1       6.343  -2.232 -19.906  1.00  0.00    -0.047 A 
ATOM      3  C   UNL     1       6.720  -0.982 -19.388  1.00  0.00     0.053 A 
ATOM      4  C   UNL     1       6.723  -0.760 -18.009  1.00  0.00     0.160 A 
ATOM      5  C   UNL     1       6.343  -1.804 -17.158  1.00  0.00     0.157 A 
ATOM      6  C   UNL     1       5.967  -3.046 -17.652  1.00  0.00     0.050 A 
ATOM      7  C   UNL     1       5.967  -3.260 -19.029  1.00  0.00     0.007 A 
ENDROOT
BRANCH   4   8
ATOM      8  O   UNL     1       7.069   0.406 -17.374  1.00  0.00    -0.493 OA
ATOM      9  C   UNL     1       8.461   0.676 -17.257  1.00  0.00     0.278 C 
ENDBRANCH   4   8
BRANCH   5  10
ATOM     10  O   UNL     1       6.335  -1.618 -15.802  1.00  0.00    -0.504 OA
ATOM     11  H   UNL     1       7.118  -1.064 -15.623  1.00  0.00     0.293 HD
ENDBRANCH   5  10
TORSDOF 2
ENDMDL
MODEL 9
REMARK VINA RESULT:      -4.8      9.298     10.011
REMARK SMILES COc1cc(C)ccc1O
REMARK SMILES IDX 6 1 5 2 4 3 3 4 9 5 8 6 7 7 2 8 1 9 10 10
REMARK H PARENT 10 11
ROOT
ATOM      1  C   UNL     1      -2.101   0.214 -28.915  1.00  0.00     0.044 C 
ATOM      2  C   UNL     1      -3.346  -0.591 -28.679  1.00  0.00    -0.047 A 
ATOM      3  C   UNL     1      -3.872  -0.745 -27.385  1.00  0.00     0.053 A 
ATOM      4  C   UNL     1      -5.032  -1.494 -27.179  1.00  0.00     0.160 A 
ATOM      5  C   UNL     1      -5.659  -2.084 -28.281  1.00  0.00     0.157 A 
ATOM      6  C   UNL     1      -5.154  -1.943 -29.568  1.00  0.00     0.050 A 
ATOM      7  C   UNL     1      -3.996  -1.195 -29.766  1.00  0.00     0.007 A 
ENDROOT
BRANCH   4   8
ATOM      8  O   UNL     1      -5.646  -1.724 -25.974  1.00  0.00    -0.493 OA
ATOM      9  C   UNL     1      -5.600  -0.665 -25.024  1.00  0.00     0.278 C 
ENDBRANCH   4   8
BRANCH   5  10
ATOM     10  O   UNL     1      -6.797  -2.824 -28.111  1.00  0.00    -0.504 OA
ATOM     11  H   UNL     1      -6.780  -3.095 -27.173  1.00  0.00     0.293 HD
ENDBRANCH   5  10
TORSDOF 2
ENDMDL
MODEL 10
REMARK VINA RESULT:      -4.8      9.334     10.949
REMARK SMILES COc1cc(C)ccc1O
REMARK SMILES IDX 6 1 5 2 4 3 3 4 9 5 8 6 7 7 2 8 1 9 10 10
REMARK H PARENT 10 11
ROOT
ATOM      1  C   UNL     1      -4.896  -1.418 -26.269  1.00  0.00     0.044 C 
ATOM      2  C   UNL     1      -4.321  -0.954 -27.575  1.00  0.00    -0.047 A 
ATOM      3  C   UNL     1      -4.226   0.416 -27.876  1.00  0.00     0.053 A 
ATOM      4  C   UNL     1      -3.687   0.836 -29.094  1.00  0.00     0.160 A 
ATOM      5  C   UNL     1      -3.244  -0.130 -30.004  1.00  0.00     0.157 A 
ATOM      6  C   UNL     1      -3.329  -1.488 -29.724  1.00  0.00     0.050 A 
ATOM      7  C   UNL     1      -3.868  -1.899 -28.507  1.00  0.00     0.007 A 
ENDROOT
BRANCH   4   8
ATOM      8  O   UNL     1      -3.540   2.134 -29.512  1.00  0.00    -0.493 OA
ATOM      9  C   UNL     1      -3.287   3.103 -28.501  1.00  0.00     0.278 C 
ENDBRANCH   4   8
BRANCH   5  10
ATOM     10  O   UNL     1      -2.710   0.250 -31.206  1.00  0.00    -0.504 OA
ATOM     11  H   UNL     1      -1.991  -0.389 -31.371  1.00  0.00     0.293 HD
ENDBRANCH   5  10
TORSDOF 2
ENDMDL
