MODEL 1
REMARK VINA RESULT:      -6.8      0.000      0.000
REMARK SMILES C/C=C/c1ccc(O)c(OC)c1
REMARK SMILES IDX 4 1 12 2 9 3 7 4 6 5 5 6 3 7 2 8 1 9 10 10 11 11 8 12
REMARK H PARENT 8 13
ROOT
ATOM      1  C   UNL     1       6.167  -2.186 -20.380  1.00  0.00    -0.022 A 
ATOM      2  C   UNL     1       6.543  -1.034 -19.666  1.00  0.00     0.058 A 
ATOM      3  C   UNL     1       6.640  -1.066 -18.273  1.00  0.00     0.161 A 
ATOM      4  C   UNL     1       6.345  -2.257 -17.603  1.00  0.00     0.157 A 
ATOM      5  C   UNL     1       5.957  -3.401 -18.287  1.00  0.00     0.051 A 
ATOM      6  C   UNL     1       5.864  -3.362 -19.678  1.00  0.00     0.012 A 
ENDROOT
BRANCH   1   7
ATOM      7  C   UNL     1       6.023  -2.184 -21.844  1.00  0.00     0.003 C 
ATOM      8  C   UNL     1       4.850  -2.067 -22.486  1.00  0.00    -0.030 C 
ATOM      9  C   UNL     1       4.720  -2.054 -23.975  1.00  0.00     0.035 C 
ENDBRANCH   1   7
BRANCH   3  10
ATOM     10  O   UNL     1       6.999  -0.020 -17.461  1.00  0.00    -0.493 OA
ATOM     11  C   UNL     1       8.346   0.430 -17.561  1.00  0.00     0.278 C 
ENDBRANCH   3  10
BRANCH   4  12
ATOM     12  O   UNL     1       6.429  -2.319 -16.238  1.00  0.00    -0.504 OA
ATOM     13  H   UNL     1       7.367  -2.518 -16.054  1.00  0.00     0.293 HD
ENDBRANCH   4  12
TORSDOF 3
ENDMDL
MODEL 2
REMARK VINA RESULT:      -6.1      1.619      2.220
REMARK SMILES C/C=C/c1ccc(O)c(OC)c1
REMARK SMILES IDX 4 1 12 2 9 3 7 4 6 5 5 6 3 7 2 8 1 9 10 10 11 11 8 12
REMARK H PARENT 8 13
ROOT
ATOM      1  C   UNL     1       6.957  -1.292 -18.936  1.00  0.00    -0.022 A 
ATOM      2  C   UNL     1       8.221  -0.751 -18.642  1.00  0.00     0.058 A 
ATOM      3  C   UNL     1       8.693  -0.729 -17.327  1.00  0.00     0.161 A 
ATOM      4  C   UNL     1       7.880  -1.242 -16.310  1.00  0.00     0.157 A 
ATOM      5  C   UNL     1       6.623  -1.766 -16.577  1.00  0.00     0.051 A 
ATOM      6  C   UNL     1       6.160  -1.786 -17.893  1.00  0.00     0.012 A 
ENDROOT
BRANCH   1   7
ATOM      7  C   UNL     1       6.413  -1.304 -20.303  1.00  0.00     0.003 C 
ATOM      8  C   UNL     1       5.834  -2.372 -20.875  1.00  0.00    -0.030 C 
ATOM      9  C   UNL     1       5.274  -2.365 -22.261  1.00  0.00     0.035 C 
ENDBRANCH   1   7
BRANCH   3  10
ATOM     10  O   UNL     1       9.903  -0.238 -16.907  1.00  0.00    -0.493 OA
ATOM     11  C   UNL     1       9.902   1.078 -16.367  1.00  0.00     0.278 C 
ENDBRANCH   3  10
BRANCH   4  12
ATOM     12  O   UNL     1       8.313  -1.232 -15.012  1.00  0.00    -0.504 OA
ATOM     13  H   UNL     1       9.168  -0.759 -15.037  1.00  0.00     0.293 HD
ENDBRANCH   4  12
TORSDOF 3
ENDMDL
MODEL 3
REMARK VINA RESULT:      -6.0     13.276     14.867
REMARK SMILES C/C=C/c1ccc(O)c(OC)c1
REMARK SMILES IDX 4 1 12 2 9 3 7 4 6 5 5 6 3 7 2 8 1 9 10 10 11 11 8 12
REMARK H PARENT 8 13
ROOT
ATOM      1  C   UNL     1      -3.610  -0.024 -27.801  1.00  0.00    -0.022 A 
ATOM      2  C   UNL     1      -4.656  -0.482 -28.622  1.00  0.00     0.058 A 
ATOM      3  C   UNL     1      -4.445  -0.690 -29.987  1.00  0.00     0.161 A 
ATOM      4  C   UNL     1      -3.180  -0.423 -30.523  1.00  0.00     0.157 A 
ATOM      5  C   UNL     1      -2.139   0.044 -29.734  1.00  0.00     0.051 A 
ATOM      6  C   UNL     1      -2.357   0.249 -28.371  1.00  0.00     0.012 A 
ENDROOT
BRANCH   1   7
ATOM      7  C   UNL     1      -3.802   0.238 -26.366  1.00  0.00     0.003 C 
ATOM      8  C   UNL     1      -4.864  -0.178 -25.660  1.00  0.00    -0.030 C 
ATOM      9  C   UNL     1      -5.039   0.085 -24.198  1.00  0.00     0.035 C 
ENDBRANCH   1   7
BRANCH   3  10
ATOM     10  O   UNL     1      -5.373  -1.137 -30.893  1.00  0.00    -0.493 OA
ATOM     11  C   UNL     1      -6.438  -0.246 -31.204  1.00  0.00     0.278 C 
ENDBRANCH   3  10
BRANCH   4  12
ATOM     12  O   UNL     1      -2.943  -0.615 -31.857  1.00  0.00    -0.504 OA
ATOM     13  H   UNL     1      -3.056   0.268 -32.260  1.00  0.00     0.293 HD
ENDBRANCH   4  12
TORSDOF 3
ENDMDL
MODEL 4
REMARK VINA RESULT:      -5.8      2.468      4.164
REMARK SMILES C/C=C/c1ccc(O)c(OC)c1
REMARK SMILES IDX 4 1 12 2 9 3 7 4 6 5 5 6 3 7 2 8 1 9 10 10 11 11 8 12
REMARK H PARENT 8 13
ROOT
ATOM      1  C   UNL     1       8.163  -0.527 -17.988  1.00  0.00    -0.022 A 
ATOM      2  C   UNL     1       9.326  -0.807 -17.248  1.00  0.00     0.058 A 
ATOM      3  C   UNL     1       9.654  -0.039 -16.128  1.00  0.00     0.161 A 
ATOM      4  C   UNL     1       8.813   1.018 -15.765  1.00  0.00     0.157 A 
ATOM      5  C   UNL     1       7.670   1.321 -16.490  1.00  0.00     0.051 A 
ATOM      6  C   UNL     1       7.348   0.549 -17.607  1.00  0.00     0.012 A 
ENDROOT
BRANCH   1   7
ATOM      7  C   UNL     1       7.801  -1.292 -19.191  1.00  0.00     0.003 C 
ATOM      8  C   UNL     1       6.541  -1.593 -19.542  1.00  0.00    -0.030 C 
ATOM      9  C   UNL     1       6.188  -2.361 -20.775  1.00  0.00     0.035 C 
ENDBRANCH   1   7
BRANCH   3  10
ATOM     10  O   UNL     1      10.751  -0.209 -15.321  1.00  0.00    -0.493 OA
ATOM     11  C   UNL     1      11.974   0.351 -15.784  1.00  0.00     0.278 C 
ENDBRANCH   3  10
BRANCH   4  12
ATOM     12  O   UNL     1       9.109   1.790 -14.674  1.00  0.00    -0.504 OA
ATOM     13  H   UNL     1       8.262   2.208 -14.426  1.00  0.00     0.293 HD
ENDBRANCH   4  12
TORSDOF 3
ENDMDL
MODEL 5
REMARK VINA RESULT:      -5.7     12.976     13.616
REMARK SMILES C/C=C/c1ccc(O)c(OC)c1
REMARK SMILES IDX 4 1 12 2 9 3 7 4 6 5 5 6 3 7 2 8 1 9 10 10 11 11 8 12
REMARK H PARENT 8 13
ROOT
ATOM      1  C   UNL     1      -4.428  -0.972 -27.023  1.00  0.00    -0.022 A 
ATOM      2  C   UNL     1      -3.799   0.286 -26.997  1.00  0.00     0.058 A 
ATOM      3  C   UNL     1      -2.953   0.675 -28.037  1.00  0.00     0.161 A 
ATOM      4  C   UNL     1      -2.733  -0.212 -29.096  1.00  0.00     0.157 A 
ATOM      5  C   UNL     1      -3.331  -1.464 -29.133  1.00  0.00     0.051 A 
ATOM      6  C   UNL     1      -4.176  -1.845 -28.091  1.00  0.00     0.012 A 
ENDROOT
BRANCH   1   7
ATOM      7  C   UNL     1      -5.301  -1.430 -25.931  1.00  0.00     0.003 C 
ATOM      8  C   UNL     1      -5.536  -0.732 -24.810  1.00  0.00    -0.030 C 
ATOM      9  C   UNL     1      -6.436  -1.205 -23.713  1.00  0.00     0.035 C 
ENDBRANCH   1   7
BRANCH   3  10
ATOM     10  O   UNL     1      -2.285   1.869 -28.137  1.00  0.00    -0.493 OA
ATOM     11  C   UNL     1      -3.071   3.013 -28.453  1.00  0.00     0.278 C 
ENDBRANCH   3  10
BRANCH   4  12
ATOM     12  O   UNL     1      -1.906   0.139 -30.129  1.00  0.00    -0.504 OA
ATOM     13  H   UNL     1      -2.336  -0.223 -30.928  1.00  0.00     0.293 HD
ENDBRANCH   4  12
TORSDOF 3
ENDMDL
MODEL 6
REMARK VINA RESULT:      -5.4     12.895     14.595
REMARK SMILES C/C=C/c1ccc(O)c(OC)c1
REMARK SMILES IDX 4 1 12 2 9 3 7 4 6 5 5 6 3 7 2 8 1 9 10 10 11 11 8 12
REMARK H PARENT 8 13
ROOT
ATOM      1  C   UNL     1      -3.091 -10.137 -27.377  1.00  0.00    -0.022 A 
ATOM      2  C   UNL     1      -2.045 -11.064 -27.218  1.00  0.00     0.058 A 
ATOM      3  C   UNL     1      -0.716 -10.636 -27.203  1.00  0.00     0.161 A 
ATOM      4  C   UNL     1      -0.445  -9.273 -27.363  1.00  0.00     0.157 A 
ATOM      5  C   UNL     1      -1.461  -8.344 -27.537  1.00  0.00     0.051 A 
ATOM      6  C   UNL     1      -2.786  -8.779 -27.549  1.00  0.00     0.012 A 
ENDROOT
BRANCH   1   7
ATOM      7  C   UNL     1      -4.501 -10.554 -27.428  1.00  0.00     0.003 C 
ATOM      8  C   UNL     1      -5.154 -11.133 -26.409  1.00  0.00    -0.030 C 
ATOM      9  C   UNL     1      -6.592 -11.539 -26.473  1.00  0.00     0.035 C 
ENDBRANCH   1   7
BRANCH   3  10
ATOM     10  O   UNL     1       0.392 -11.431 -27.052  1.00  0.00    -0.493 OA
ATOM     11  C   UNL     1       0.576 -12.027 -25.773  1.00  0.00     0.278 C 
ENDBRANCH   3  10
BRANCH   4  12
ATOM     12  O   UNL     1       0.848  -8.822 -27.357  1.00  0.00    -0.504 OA
ATOM     13  H   UNL     1       1.175  -8.990 -28.261  1.00  0.00     0.293 HD
ENDBRANCH   4  12
TORSDOF 3
ENDMDL
MODEL 7
REMARK VINA RESULT:      -5.4     17.253     19.968
REMARK SMILES C/C=C/c1ccc(O)c(OC)c1
REMARK SMILES IDX 4 1 12 2 9 3 7 4 6 5 5 6 3 7 2 8 1 9 10 10 11 11 8 12
REMARK H PARENT 8 13
ROOT
ATOM      1  C   UNL     1      -7.381   1.291 -32.063  1.00  0.00    -0.022 A 
ATOM      2  C   UNL     1      -8.531   1.142 -31.267  1.00  0.00     0.058 A 
ATOM      3  C   UNL     1      -9.722   0.673 -31.825  1.00  0.00     0.161 A 
ATOM      4  C   UNL     1      -9.754   0.368 -33.190  1.00  0.00     0.157 A 
ATOM      5  C   UNL     1      -8.636   0.523 -33.997  1.00  0.00     0.051 A 
ATOM      6  C   UNL     1      -7.449   0.990 -33.432  1.00  0.00     0.012 A 
ENDROOT
BRANCH   1   7
ATOM      7  C   UNL     1      -6.118   1.811 -31.519  1.00  0.00     0.003 C 
ATOM      8  C   UNL     1      -6.038   2.772 -30.585  1.00  0.00    -0.030 C 
ATOM      9  C   UNL     1      -4.746   3.282 -30.032  1.00  0.00     0.035 C 
ENDBRANCH   1   7
BRANCH   3  10
ATOM     10  O   UNL     1     -10.907   0.478 -31.162  1.00  0.00    -0.493 OA
ATOM     11  C   UNL     1     -10.838  -0.232 -29.931  1.00  0.00     0.278 C 
ENDBRANCH   3  10
BRANCH   4  12
ATOM     12  O   UNL     1     -10.907  -0.090 -33.767  1.00  0.00    -0.504 OA
ATOM     13  H   UNL     1     -11.613   0.474 -33.396  1.00  0.00     0.293 HD
ENDBRANCH   4  12
TORSDOF 3
ENDMDL
MODEL 8
REMARK VINA RESULT:      -5.4     16.740     19.766
REMARK SMILES C/C=C/c1ccc(O)c(OC)c1
REMARK SMILES IDX 4 1 12 2 9 3 7 4 6 5 5 6 3 7 2 8 1 9 10 10 11 11 8 12
REMARK H PARENT 8 13
ROOT
ATOM      1  C   UNL     1      -7.401   0.517 -32.255  1.00  0.00    -0.022 A 
ATOM      2  C   UNL     1      -8.051  -0.585 -31.670  1.00  0.00     0.058 A 
ATOM      3  C   UNL     1      -9.398  -0.836 -31.938  1.00  0.00     0.161 A 
ATOM      4  C   UNL     1     -10.091   0.034 -32.787  1.00  0.00     0.157 A 
ATOM      5  C   UNL     1      -9.473   1.136 -33.362  1.00  0.00     0.051 A 
ATOM      6  C   UNL     1      -8.126   1.379 -33.090  1.00  0.00     0.012 A 
ENDROOT
BRANCH   1   7
ATOM      7  C   UNL     1      -5.992   0.832 -31.972  1.00  0.00     0.003 C 
ATOM      8  C   UNL     1      -5.199   0.094 -31.179  1.00  0.00    -0.030 C 
ATOM      9  C   UNL     1      -3.765   0.421 -30.911  1.00  0.00     0.035 C 
ENDBRANCH   1   7
BRANCH   3  10
ATOM     10  O   UNL     1     -10.145  -1.873 -31.440  1.00  0.00    -0.493 OA
ATOM     11  C   UNL     1      -9.431  -2.915 -30.786  1.00  0.00     0.278 C 
ENDBRANCH   3  10
BRANCH   4  12
ATOM     12  O   UNL     1     -11.413  -0.184 -33.067  1.00  0.00    -0.504 OA
ATOM     13  H   UNL     1     -11.727  -0.769 -32.351  1.00  0.00     0.293 HD
ENDBRANCH   4  12
TORSDOF 3
ENDMDL
MODEL 9
REMARK VINA RESULT:      -5.3     13.449     15.177
REMARK SMILES C/C=C/c1ccc(O)c(OC)c1
REMARK SMILES IDX 4 1 12 2 9 3 7 4 6 5 5 6 3 7 2 8 1 9 10 10 11 11 8 12
REMARK H PARENT 8 13
ROOT
ATOM      1  C   UNL     1      -3.207   1.678 -28.816  1.00  0.00    -0.022 A 
ATOM      2  C   UNL     1      -4.121   1.511 -29.871  1.00  0.00     0.058 A 
ATOM      3  C   UNL     1      -4.253   0.274 -30.504  1.00  0.00     0.161 A 
ATOM      4  C   UNL     1      -3.451  -0.791 -30.079  1.00  0.00     0.157 A 
ATOM      5  C   UNL     1      -2.531  -0.643 -29.050  1.00  0.00     0.051 A 
ATOM      6  C   UNL     1      -2.407   0.596 -28.422  1.00  0.00     0.012 A 
ENDROOT
BRANCH   1   7
ATOM      7  C   UNL     1      -3.016   2.974 -28.146  1.00  0.00     0.003 C 
ATOM      8  C   UNL     1      -3.191   4.164 -28.742  1.00  0.00    -0.030 C 
ATOM      9  C   UNL     1      -3.006   5.473 -28.044  1.00  0.00     0.035 C 
ENDBRANCH   1   7
BRANCH   3  10
ATOM     10  O   UNL     1      -5.106  -0.023 -31.537  1.00  0.00    -0.493 OA
ATOM     11  C   UNL     1      -6.484   0.268 -31.327  1.00  0.00     0.278 C 
ENDBRANCH   3  10
BRANCH   4  12
ATOM     12  O   UNL     1      -3.555  -2.015 -30.682  1.00  0.00    -0.504 OA
ATOM     13  H   UNL     1      -3.904  -2.607 -29.987  1.00  0.00     0.293 HD
ENDBRANCH   4  12
TORSDOF 3
ENDMDL
MODEL 10
REMARK VINA RESULT:      -5.2     14.897     17.544
REMARK SMILES C/C=C/c1ccc(O)c(OC)c1
REMARK SMILES IDX 4 1 12 2 9 3 7 4 6 5 5 6 3 7 2 8 1 9 10 10 11 11 8 12
REMARK H PARENT 8 13
ROOT
ATOM      1  C   UNL     1      -7.106   1.188 -31.441  1.00  0.00    -0.022 A 
ATOM      2  C   UNL     1      -6.183   0.129 -31.522  1.00  0.00     0.058 A 
ATOM      3  C   UNL     1      -4.901   0.265 -30.984  1.00  0.00     0.161 A 
ATOM      4  C   UNL     1      -4.549   1.475 -30.377  1.00  0.00     0.157 A 
ATOM      5  C   UNL     1      -5.439   2.537 -30.301  1.00  0.00     0.051 A 
ATOM      6  C   UNL     1      -6.718   2.393 -30.839  1.00  0.00     0.012 A 
ENDROOT
BRANCH   1   7
ATOM      7  C   UNL     1      -8.453   1.094 -32.023  1.00  0.00     0.003 C 
ATOM      8  C   UNL     1      -8.729   0.498 -33.194  1.00  0.00    -0.030 C 
ATOM      9  C   UNL     1     -10.107   0.400 -33.766  1.00  0.00     0.035 C 
ENDBRANCH   1   7
BRANCH   3  10
ATOM     10  O   UNL     1      -3.913  -0.687 -30.991  1.00  0.00    -0.493 OA
ATOM     11  C   UNL     1      -4.016  -1.718 -30.017  1.00  0.00     0.278 C 
ENDBRANCH   3  10
BRANCH   4  12
ATOM     12  O   UNL     1      -3.299   1.640 -29.844  1.00  0.00    -0.504 OA
ATOM     13  H   UNL     1      -2.689   1.311 -30.532  1.00  0.00     0.293 HD
ENDBRANCH   4  12
TORSDOF 3
ENDMDL
