MODEL 1
REMARK VINA RESULT:      -6.9      0.000      0.000
REMARK SMILES O=C(O)/C=C/c1ccc(O)cc1
REMARK SMILES IDX 5 1 4 2 6 3 7 4 8 5 9 6 12 7 11 8 10 9 2 11 1 12 3 13
REMARK H PARENT 10 10 3 14
ROOT
ATOM      1  C   UNL     1       6.032  -2.349 -20.252  1.00  0.00     0.015 C 
ATOM      2  C   UNL     1       5.656  -1.633 -21.323  1.00  0.00     0.094 C 
ENDROOT
BRANCH   1   3
ATOM      3  C   UNL     1       6.598  -1.755 -19.036  1.00  0.00    -0.025 A 
ATOM      4  C   UNL     1       6.086  -2.036 -17.760  1.00  0.00     0.012 A 
ATOM      5  C   UNL     1       6.632  -1.429 -16.624  1.00  0.00     0.047 A 
ATOM      6  C   UNL     1       7.687  -0.534 -16.767  1.00  0.00     0.115 A 
ATOM      7  C   UNL     1       7.649  -0.837 -19.157  1.00  0.00     0.012 A 
ATOM      8  C   UNL     1       8.197  -0.233 -18.023  1.00  0.00     0.047 A 
BRANCH   6   9
ATOM      9  O   UNL     1       8.250   0.080 -15.689  1.00  0.00    -0.508 OA
ATOM     10  H   UNL     1       8.387   1.019 -15.900  1.00  0.00     0.293 HD
ENDBRANCH   6   9
ENDBRANCH   1   3
BRANCH   2  11
ATOM     11  C   UNL     1       5.083  -2.330 -22.492  1.00  0.00     0.328 C 
ATOM     12  O   UNL     1       4.415  -3.348 -22.435  1.00  0.00    -0.247 OA
BRANCH  11  13
ATOM     13  O   UNL     1       5.383  -1.708 -23.649  1.00  0.00    -0.478 OA
ATOM     14  H   UNL     1       4.789  -0.980 -23.902  1.00  0.00     0.297 HD
ENDBRANCH  11  13
ENDBRANCH   2  11
TORSDOF 4
ENDMDL
MODEL 2
REMARK VINA RESULT:      -6.0     13.003     13.953
REMARK SMILES O=C(O)/C=C/c1ccc(O)cc1
REMARK SMILES IDX 5 1 4 2 6 3 7 4 8 5 9 6 12 7 11 8 10 9 2 11 1 12 3 13
REMARK H PARENT 10 10 3 14
ROOT
ATOM      1  C   UNL     1      -5.285  -1.138 -26.010  1.00  0.00     0.015 C 
ATOM      2  C   UNL     1      -5.598  -0.402 -24.932  1.00  0.00     0.094 C 
ENDROOT
BRANCH   1   3
ATOM      3  C   UNL     1      -4.269  -0.746 -26.994  1.00  0.00    -0.025 A 
ATOM      4  C   UNL     1      -3.549   0.453 -26.886  1.00  0.00     0.012 A 
ATOM      5  C   UNL     1      -2.608   0.809 -27.858  1.00  0.00     0.047 A 
ATOM      6  C   UNL     1      -2.393  -0.035 -28.943  1.00  0.00     0.115 A 
ATOM      7  C   UNL     1      -4.049  -1.570 -28.105  1.00  0.00     0.012 A 
ATOM      8  C   UNL     1      -3.108  -1.218 -29.074  1.00  0.00     0.047 A 
BRANCH   6   9
ATOM      9  O   UNL     1      -1.487   0.271 -29.913  1.00  0.00    -0.508 OA
ATOM     10  H   UNL     1      -0.657  -0.199 -29.725  1.00  0.00     0.293 HD
ENDBRANCH   6   9
ENDBRANCH   1   3
BRANCH   2  11
ATOM     11  C   UNL     1      -6.625  -0.898 -23.995  1.00  0.00     0.328 C 
ATOM     12  O   UNL     1      -7.523  -0.220 -23.526  1.00  0.00    -0.247 OA
BRANCH  11  13
ATOM     13  O   UNL     1      -6.460  -2.204 -23.709  1.00  0.00    -0.478 OA
ATOM     14  H   UNL     1      -6.884  -2.512 -22.888  1.00  0.00     0.297 HD
ENDBRANCH  11  13
ENDBRANCH   2  11
TORSDOF 4
ENDMDL
MODEL 3
REMARK VINA RESULT:      -5.9     15.951     18.819
REMARK SMILES O=C(O)/C=C/c1ccc(O)cc1
REMARK SMILES IDX 5 1 4 2 6 3 7 4 8 5 9 6 12 7 11 8 10 9 2 11 1 12 3 13
REMARK H PARENT 10 10 3 14
ROOT
ATOM      1  C   UNL     1      -8.313   0.294 -32.066  1.00  0.00     0.015 C 
ATOM      2  C   UNL     1      -8.840   0.884 -33.151  1.00  0.00     0.094 C 
ENDROOT
BRANCH   1   3
ATOM      3  C   UNL     1      -6.880   0.311 -31.749  1.00  0.00    -0.025 A 
ATOM      4  C   UNL     1      -6.295  -0.632 -30.889  1.00  0.00     0.012 A 
ATOM      5  C   UNL     1      -4.931  -0.569 -30.587  1.00  0.00     0.047 A 
ATOM      6  C   UNL     1      -4.154   0.443 -31.141  1.00  0.00     0.115 A 
ATOM      7  C   UNL     1      -6.082   1.331 -32.280  1.00  0.00     0.012 A 
ATOM      8  C   UNL     1      -4.719   1.393 -31.981  1.00  0.00     0.047 A 
BRANCH   6   9
ATOM      9  O   UNL     1      -2.821   0.543 -30.874  1.00  0.00    -0.508 OA
ATOM     10  H   UNL     1      -2.663   0.254 -29.960  1.00  0.00     0.293 HD
ENDBRANCH   6   9
ENDBRANCH   1   3
BRANCH   2  11
ATOM     11  C   UNL     1     -10.299   0.821 -33.369  1.00  0.00     0.328 C 
ATOM     12  O   UNL     1     -10.895  -0.146 -33.809  1.00  0.00    -0.247 OA
BRANCH  11  13
ATOM     13  O   UNL     1     -10.911   1.970 -33.022  1.00  0.00    -0.478 OA
ATOM     14  H   UNL     1     -11.543   2.324 -33.674  1.00  0.00     0.297 HD
ENDBRANCH  11  13
ENDBRANCH   2  11
TORSDOF 4
ENDMDL
MODEL 4
REMARK VINA RESULT:      -5.9      1.666      2.508
REMARK SMILES O=C(O)/C=C/c1ccc(O)cc1
REMARK SMILES IDX 5 1 4 2 6 3 7 4 8 5 9 6 12 7 11 8 10 9 2 11 1 12 3 13
REMARK H PARENT 10 10 3 14
ROOT
ATOM      1  C   UNL     1       7.695  -1.471 -19.200  1.00  0.00     0.015 C 
ATOM      2  C   UNL     1       6.457  -1.513 -19.717  1.00  0.00     0.094 C 
ENDROOT
BRANCH   1   3
ATOM      3  C   UNL     1       8.086  -0.581 -18.100  1.00  0.00    -0.025 A 
ATOM      4  C   UNL     1       9.298  -0.734 -17.410  1.00  0.00     0.012 A 
ATOM      5  C   UNL     1       9.625   0.115 -16.348  1.00  0.00     0.047 A 
ATOM      6  C   UNL     1       8.735   1.116 -15.973  1.00  0.00     0.115 A 
ATOM      7  C   UNL     1       7.197   0.422 -17.693  1.00  0.00     0.012 A 
ATOM      8  C   UNL     1       7.524   1.273 -16.636  1.00  0.00     0.047 A 
BRANCH   6   9
ATOM      9  O   UNL     1       9.012   1.966 -14.946  1.00  0.00    -0.508 OA
ATOM     10  H   UNL     1       9.334   2.806 -15.313  1.00  0.00     0.293 HD
ENDBRANCH   6   9
ENDBRANCH   1   3
BRANCH   2  11
ATOM     11  C   UNL     1       6.166  -2.459 -20.812  1.00  0.00     0.328 C 
ATOM     12  O   UNL     1       5.507  -2.193 -21.803  1.00  0.00    -0.247 OA
BRANCH  11  13
ATOM     13  O   UNL     1       6.716  -3.669 -20.595  1.00  0.00    -0.478 OA
ATOM     14  H   UNL     1       6.741  -3.960 -19.666  1.00  0.00     0.297 HD
ENDBRANCH  11  13
ENDBRANCH   2  11
TORSDOF 4
ENDMDL
MODEL 5
REMARK VINA RESULT:      -5.9      2.716      3.665
REMARK SMILES O=C(O)/C=C/c1ccc(O)cc1
REMARK SMILES IDX 5 1 4 2 6 3 7 4 8 5 9 6 12 7 11 8 10 9 2 11 1 12 3 13
REMARK H PARENT 10 10 3 14
ROOT
ATOM      1  C   UNL     1       4.548  -2.107 -23.434  1.00  0.00     0.015 C 
ATOM      2  C   UNL     1       4.821  -1.092 -24.270  1.00  0.00     0.094 C 
ENDROOT
BRANCH   1   3
ATOM      3  C   UNL     1       5.214  -2.293 -22.139  1.00  0.00    -0.025 A 
ATOM      4  C   UNL     1       5.079  -3.474 -21.393  1.00  0.00     0.012 A 
ATOM      5  C   UNL     1       5.707  -3.607 -20.150  1.00  0.00     0.047 A 
ATOM      6  C   UNL     1       6.464  -2.552 -19.651  1.00  0.00     0.115 A 
ATOM      7  C   UNL     1       5.968  -1.239 -21.608  1.00  0.00     0.012 A 
ATOM      8  C   UNL     1       6.597  -1.371 -20.369  1.00  0.00     0.047 A 
BRANCH   6   9
ATOM      9  O   UNL     1       7.092  -2.637 -18.445  1.00  0.00    -0.508 OA
ATOM     10  H   UNL     1       7.753  -1.927 -18.386  1.00  0.00     0.293 HD
ENDBRANCH   6   9
ENDBRANCH   1   3
BRANCH   2  11
ATOM     11  C   UNL     1       4.080  -0.988 -25.542  1.00  0.00     0.328 C 
ATOM     12  O   UNL     1       4.481  -1.403 -26.616  1.00  0.00    -0.247 OA
BRANCH  11  13
ATOM     13  O   UNL     1       2.891  -0.374 -25.386  1.00  0.00    -0.478 OA
ATOM     14  H   UNL     1       2.670   0.293 -26.061  1.00  0.00     0.297 HD
ENDBRANCH  11  13
ENDBRANCH   2  11
TORSDOF 4
ENDMDL
MODEL 6
REMARK VINA RESULT:      -5.8     12.944     14.411
REMARK SMILES O=C(O)/C=C/c1ccc(O)cc1
REMARK SMILES IDX 5 1 4 2 6 3 7 4 8 5 9 6 12 7 11 8 10 9 2 11 1 12 3 13
REMARK H PARENT 10 10 3 14
ROOT
ATOM      1  C   UNL     1      -4.038  -0.044 -26.483  1.00  0.00     0.015 C 
ATOM      2  C   UNL     1      -5.089  -0.647 -25.905  1.00  0.00     0.094 C 
ENDROOT
BRANCH   1   3
ATOM      3  C   UNL     1      -3.665  -0.235 -27.890  1.00  0.00    -0.025 A 
ATOM      4  C   UNL     1      -2.479   0.290 -28.426  1.00  0.00     0.012 A 
ATOM      5  C   UNL     1      -2.169   0.112 -29.778  1.00  0.00     0.047 A 
ATOM      6  C   UNL     1      -3.051  -0.587 -30.596  1.00  0.00     0.115 A 
ATOM      7  C   UNL     1      -4.546  -0.920 -28.736  1.00  0.00     0.012 A 
ATOM      8  C   UNL     1      -4.236  -1.101 -30.085  1.00  0.00     0.047 A 
BRANCH   6   9
ATOM      9  O   UNL     1      -2.790  -0.785 -31.918  1.00  0.00    -0.508 OA
ATOM     10  H   UNL     1      -3.504  -1.320 -32.301  1.00  0.00     0.293 HD
ENDBRANCH   6   9
ENDBRANCH   1   3
BRANCH   2  11
ATOM     11  C   UNL     1      -5.386  -0.372 -24.485  1.00  0.00     0.328 C 
ATOM     12  O   UNL     1      -6.173  -1.007 -23.805  1.00  0.00    -0.247 OA
BRANCH  11  13
ATOM     13  O   UNL     1      -4.680   0.675 -24.015  1.00  0.00    -0.478 OA
ATOM     14  H   UNL     1      -4.066   1.087 -24.648  1.00  0.00     0.297 HD
ENDBRANCH  11  13
ENDBRANCH   2  11
TORSDOF 4
ENDMDL
MODEL 7
REMARK VINA RESULT:      -5.8     11.741     13.990
REMARK SMILES O=C(O)/C=C/c1ccc(O)cc1
REMARK SMILES IDX 5 1 4 2 6 3 7 4 8 5 9 6 12 7 11 8 10 9 2 11 1 12 3 13
REMARK H PARENT 10 10 3 14
ROOT
ATOM      1  C   UNL     1       0.702 -10.187 -25.408  1.00  0.00     0.015 C 
ATOM      2  C   UNL     1       0.867 -11.279 -24.644  1.00  0.00     0.094 C 
ENDROOT
BRANCH   1   3
ATOM      3  C   UNL     1      -0.433  -9.997 -26.318  1.00  0.00    -0.025 A 
ATOM      4  C   UNL     1      -0.796 -10.960 -27.272  1.00  0.00     0.012 A 
ATOM      5  C   UNL     1      -1.867 -10.732 -28.141  1.00  0.00     0.047 A 
ATOM      6  C   UNL     1      -2.572  -9.536 -28.060  1.00  0.00     0.115 A 
ATOM      7  C   UNL     1      -1.146  -8.792 -26.267  1.00  0.00     0.012 A 
ATOM      8  C   UNL     1      -2.218  -8.565 -27.132  1.00  0.00     0.047 A 
BRANCH   6   9
ATOM      9  O   UNL     1      -3.622  -9.271 -28.887  1.00  0.00    -0.508 OA
ATOM     10  H   UNL     1      -3.293  -8.796 -29.668  1.00  0.00     0.293 HD
ENDBRANCH   6   9
ENDBRANCH   1   3
BRANCH   2  11
ATOM     11  C   UNL     1       2.039 -11.363 -23.750  1.00  0.00     0.328 C 
ATOM     12  O   UNL     1       2.214 -12.231 -22.914  1.00  0.00    -0.247 OA
BRANCH  11  13
ATOM     13  O   UNL     1       2.910 -10.357 -23.962  1.00  0.00    -0.478 OA
ATOM     14  H   UNL     1       3.717 -10.377 -23.418  1.00  0.00     0.297 HD
ENDBRANCH  11  13
ENDBRANCH   2  11
TORSDOF 4
ENDMDL
MODEL 8
REMARK VINA RESULT:      -5.8     15.998     19.475
REMARK SMILES O=C(O)/C=C/c1ccc(O)cc1
REMARK SMILES IDX 5 1 4 2 6 3 7 4 8 5 9 6 12 7 11 8 10 9 2 11 1 12 3 13
REMARK H PARENT 10 10 3 14
ROOT
ATOM      1  C   UNL     1      -6.108   1.054 -31.995  1.00  0.00     0.015 C 
ATOM      2  C   UNL     1      -5.348   0.245 -31.240  1.00  0.00     0.094 C 
ENDROOT
BRANCH   1   3
ATOM      3  C   UNL     1      -7.505   0.768 -32.341  1.00  0.00    -0.025 A 
ATOM      4  C   UNL     1      -8.350   1.738 -32.902  1.00  0.00     0.012 A 
ATOM      5  C   UNL     1      -9.684   1.437 -33.193  1.00  0.00     0.047 A 
ATOM      6  C   UNL     1     -10.175   0.165 -32.915  1.00  0.00     0.115 A 
ATOM      7  C   UNL     1      -8.026  -0.500 -32.053  1.00  0.00     0.012 A 
ATOM      8  C   UNL     1      -9.357  -0.802 -32.346  1.00  0.00     0.047 A 
BRANCH   6   9
ATOM      9  O   UNL     1     -11.468  -0.172 -33.182  1.00  0.00    -0.508 OA
ATOM     10  H   UNL     1     -11.844   0.486 -33.790  1.00  0.00     0.293 HD
ENDBRANCH   6   9
ENDBRANCH   1   3
BRANCH   2  11
ATOM     11  C   UNL     1      -3.957   0.636 -30.938  1.00  0.00     0.328 C 
ATOM     12  O   UNL     1      -3.565   1.027 -29.852  1.00  0.00    -0.247 OA
BRANCH  11  13
ATOM     13  O   UNL     1      -3.153   0.513 -32.012  1.00  0.00    -0.478 OA
ATOM     14  H   UNL     1      -2.702  -0.345 -32.105  1.00  0.00     0.297 HD
ENDBRANCH  11  13
ENDBRANCH   2  11
TORSDOF 4
ENDMDL
MODEL 9
REMARK VINA RESULT:      -5.8     15.499     18.878
REMARK SMILES O=C(O)/C=C/c1ccc(O)cc1
REMARK SMILES IDX 5 1 4 2 6 3 7 4 8 5 9 6 12 7 11 8 10 9 2 11 1 12 3 13
REMARK H PARENT 10 10 3 14
ROOT
ATOM      1  C   UNL     1      -5.901  -0.023 -31.175  1.00  0.00     0.015 C 
ATOM      2  C   UNL     1      -4.757   0.596 -31.504  1.00  0.00     0.094 C 
ENDROOT
BRANCH   1   3
ATOM      3  C   UNL     1      -7.228   0.447 -31.590  1.00  0.00    -0.025 A 
ATOM      4  C   UNL     1      -8.375   0.226 -30.813  1.00  0.00     0.012 A 
ATOM      5  C   UNL     1      -9.628   0.665 -31.254  1.00  0.00     0.047 A 
ATOM      6  C   UNL     1      -9.733   1.318 -32.477  1.00  0.00     0.115 A 
ATOM      7  C   UNL     1      -7.360   1.091 -32.826  1.00  0.00     0.012 A 
ATOM      8  C   UNL     1      -8.610   1.532 -33.266  1.00  0.00     0.047 A 
BRANCH   6   9
ATOM      9  O   UNL     1     -10.933   1.762 -32.946  1.00  0.00    -0.508 OA
ATOM     10  H   UNL     1     -11.554   1.830 -32.201  1.00  0.00     0.293 HD
ENDBRANCH   6   9
ENDBRANCH   1   3
BRANCH   2  11
ATOM     11  C   UNL     1      -3.472   0.029 -31.047  1.00  0.00     0.328 C 
ATOM     12  O   UNL     1      -2.940   0.286 -29.982  1.00  0.00    -0.247 OA
BRANCH  11  13
ATOM     13  O   UNL     1      -2.943  -0.818 -31.952  1.00  0.00    -0.478 OA
ATOM     14  H   UNL     1      -2.544  -1.627 -31.587  1.00  0.00     0.297 HD
ENDBRANCH  11  13
ENDBRANCH   2  11
TORSDOF 4
ENDMDL
MODEL 10
REMARK VINA RESULT:      -5.7      2.288      6.150
REMARK SMILES O=C(O)/C=C/c1ccc(O)cc1
REMARK SMILES IDX 5 1 4 2 6 3 7 4 8 5 9 6 12 7 11 8 10 9 2 11 1 12 3 13
REMARK H PARENT 10 10 3 14
ROOT
ATOM      1  C   UNL     1       7.883   0.758 -16.506  1.00  0.00     0.015 C 
ATOM      2  C   UNL     1       9.145   0.819 -16.052  1.00  0.00     0.094 C 
ENDROOT
BRANCH   1   3
ATOM      3  C   UNL     1       7.366  -0.347 -17.322  1.00  0.00    -0.025 A 
ATOM      4  C   UNL     1       6.484  -1.309 -16.806  1.00  0.00     0.012 A 
ATOM      5  C   UNL     1       6.034  -2.364 -17.606  1.00  0.00     0.047 A 
ATOM      6  C   UNL     1       6.473  -2.460 -18.922  1.00  0.00     0.115 A 
ATOM      7  C   UNL     1       7.809  -0.475 -18.645  1.00  0.00     0.012 A 
ATOM      8  C   UNL     1       7.358  -1.526 -19.445  1.00  0.00     0.047 A 
BRANCH   6   9
ATOM      9  O   UNL     1       6.061  -3.471 -19.737  1.00  0.00    -0.508 OA
ATOM     10  H   UNL     1       6.567  -3.431 -20.566  1.00  0.00     0.293 HD
ENDBRANCH   6   9
ENDBRANCH   1   3
BRANCH   2  11
ATOM     11  C   UNL     1       9.558   1.969 -15.223  1.00  0.00     0.328 C 
ATOM     12  O   UNL     1      10.595   2.030 -14.587  1.00  0.00    -0.247 OA
BRANCH  11  13
ATOM     13  O   UNL     1       8.646   2.961 -15.246  1.00  0.00    -0.478 OA
ATOM     14  H   UNL     1       8.938   3.809 -14.865  1.00  0.00     0.297 HD
ENDBRANCH  11  13
ENDBRANCH   2  11
TORSDOF 4
ENDMDL
