MODEL 1
REMARK VINA RESULT:      -7.4      0.000      0.000
REMARK SMILES O=C(O)/C=C/c1cccc(O)c1
REMARK SMILES IDX 5 1 4 2 6 3 8 4 7 5 9 6 10 7 12 8 11 9 2 11 1 12 3 13
REMARK H PARENT 11 10 3 14
ROOT
ATOM      1  C   UNL     1       5.258  -2.610 -22.084  1.00  0.00     0.016 C 
ATOM      2  C   UNL     1       5.974  -1.959 -21.153  1.00  0.00     0.094 C 
ENDROOT
BRANCH   1   3
ATOM      3  C   UNL     1       4.675  -1.948 -23.256  1.00  0.00    -0.022 A 
ATOM      4  C   UNL     1       2.691  -1.335 -24.517  1.00  0.00     0.004 A 
ATOM      5  C   UNL     1       3.282  -1.943 -23.406  1.00  0.00     0.008 A 
ATOM      6  C   UNL     1       3.489  -0.743 -25.492  1.00  0.00     0.046 A 
ATOM      7  C   UNL     1       4.871  -0.766 -25.356  1.00  0.00     0.116 A 
ATOM      8  C   UNL     1       5.474  -1.365 -24.251  1.00  0.00     0.054 A 
BRANCH   7   9
ATOM      9  O   UNL     1       5.614  -0.189 -26.344  1.00  0.00    -0.508 OA
ATOM     10  H   UNL     1       6.235  -0.847 -26.697  1.00  0.00     0.293 HD
ENDBRANCH   7   9
ENDBRANCH   1   3
BRANCH   2  11
ATOM     11  C   UNL     1       6.507  -2.710 -19.999  1.00  0.00     0.328 C 
ATOM     12  O   UNL     1       5.988  -3.701 -19.516  1.00  0.00    -0.247 OA
BRANCH  11  13
ATOM     13  O   UNL     1       7.651  -2.173 -19.532  1.00  0.00    -0.478 OA
ATOM     14  H   UNL     1       7.890  -1.303 -19.900  1.00  0.00     0.297 HD
ENDBRANCH  11  13
ENDBRANCH   2  11
TORSDOF 4
ENDMDL
MODEL 2
REMARK VINA RESULT:      -6.7      2.620      6.347
REMARK SMILES O=C(O)/C=C/c1cccc(O)c1
REMARK SMILES IDX 5 1 4 2 6 3 8 4 7 5 9 6 10 7 12 8 11 9 2 11 1 12 3 13
REMARK H PARENT 11 10 3 14
ROOT
ATOM      1  C   UNL     1       6.038  -2.382 -20.779  1.00  0.00     0.016 C 
ATOM      2  C   UNL     1       5.378  -1.645 -21.687  1.00  0.00     0.094 C 
ENDROOT
BRANCH   1   3
ATOM      3  C   UNL     1       6.577  -1.826 -19.533  1.00  0.00    -0.022 A 
ATOM      4  C   UNL     1       8.296  -0.521 -18.417  1.00  0.00     0.004 A 
ATOM      5  C   UNL     1       7.745  -1.054 -19.585  1.00  0.00     0.008 A 
ATOM      6  C   UNL     1       7.692  -0.769 -17.187  1.00  0.00     0.046 A 
ATOM      7  C   UNL     1       6.546  -1.552 -17.131  1.00  0.00     0.116 A 
ATOM      8  C   UNL     1       5.983  -2.087 -18.289  1.00  0.00     0.054 A 
BRANCH   7   9
ATOM      9  O   UNL     1       5.998  -1.783 -15.903  1.00  0.00    -0.508 OA
ATOM     10  H   UNL     1       6.698  -2.070 -15.294  1.00  0.00     0.293 HD
ENDBRANCH   7   9
ENDBRANCH   1   3
BRANCH   2  11
ATOM     11  C   UNL     1       4.888  -2.291 -22.920  1.00  0.00     0.328 C 
ATOM     12  O   UNL     1       4.186  -3.287 -22.950  1.00  0.00    -0.247 OA
BRANCH  11  13
ATOM     13  O   UNL     1       5.306  -1.648 -24.028  1.00  0.00    -0.478 OA
ATOM     14  H   UNL     1       4.901  -0.776 -24.188  1.00  0.00     0.297 HD
ENDBRANCH  11  13
ENDBRANCH   2  11
TORSDOF 4
ENDMDL
MODEL 3
REMARK VINA RESULT:      -6.6      2.854      4.307
REMARK SMILES O=C(O)/C=C/c1cccc(O)c1
REMARK SMILES IDX 5 1 4 2 6 3 8 4 7 5 9 6 10 7 12 8 11 9 2 11 1 12 3 13
REMARK H PARENT 11 10 3 14
ROOT
ATOM      1  C   UNL     1       4.577  -0.970 -25.412  1.00  0.00     0.016 C 
ATOM      2  C   UNL     1       5.107  -1.422 -24.264  1.00  0.00     0.094 C 
ENDROOT
BRANCH   1   3
ATOM      3  C   UNL     1       5.338  -0.194 -26.397  1.00  0.00    -0.022 A 
ATOM      4  C   UNL     1       7.043   1.475 -26.852  1.00  0.00     0.004 A 
ATOM      5  C   UNL     1       6.309   0.708 -25.944  1.00  0.00     0.008 A 
ATOM      6  C   UNL     1       6.802   1.355 -28.219  1.00  0.00     0.046 A 
ATOM      7  C   UNL     1       5.825   0.476 -28.668  1.00  0.00     0.116 A 
ATOM      8  C   UNL     1       5.088  -0.298 -27.774  1.00  0.00     0.054 A 
BRANCH   7   9
ATOM      9  O   UNL     1       5.610   0.405 -30.014  1.00  0.00    -0.508 OA
ATOM     10  H   UNL     1       5.480   1.303 -30.360  1.00  0.00     0.293 HD
ENDBRANCH   7   9
ENDBRANCH   1   3
BRANCH   2  11
ATOM     11  C   UNL     1       4.255  -2.180 -23.327  1.00  0.00     0.328 C 
ATOM     12  O   UNL     1       4.670  -2.953 -22.482  1.00  0.00    -0.247 OA
BRANCH  11  13
ATOM     13  O   UNL     1       2.946  -1.917 -23.508  1.00  0.00    -0.478 OA
ATOM     14  H   UNL     1       2.471  -2.527 -24.101  1.00  0.00     0.297 HD
ENDBRANCH  11  13
ENDBRANCH   2  11
TORSDOF 4
ENDMDL
MODEL 4
REMARK VINA RESULT:      -6.6      2.770      6.276
REMARK SMILES O=C(O)/C=C/c1cccc(O)c1
REMARK SMILES IDX 5 1 4 2 6 3 8 4 7 5 9 6 10 7 12 8 11 9 2 11 1 12 3 13
REMARK H PARENT 11 10 3 14
ROOT
ATOM      1  C   UNL     1       6.332  -2.206 -20.441  1.00  0.00     0.016 C 
ATOM      2  C   UNL     1       5.408  -1.628 -21.225  1.00  0.00     0.094 C 
ENDROOT
BRANCH   1   3
ATOM      3  C   UNL     1       6.711  -1.681 -19.125  1.00  0.00    -0.022 A 
ATOM      4  C   UNL     1       6.432  -1.736 -16.712  1.00  0.00     0.004 A 
ATOM      5  C   UNL     1       6.107  -2.221 -17.982  1.00  0.00     0.008 A 
ATOM      6  C   UNL     1       7.351  -0.699 -16.578  1.00  0.00     0.046 A 
ATOM      7  C   UNL     1       7.935  -0.148 -17.712  1.00  0.00     0.116 A 
ATOM      8  C   UNL     1       7.624  -0.625 -18.984  1.00  0.00     0.054 A 
BRANCH   7   9
ATOM      9  O   UNL     1       8.817   0.878 -17.534  1.00  0.00    -0.508 OA
ATOM     10  H   UNL     1       8.385   1.711 -17.783  1.00  0.00     0.293 HD
ENDBRANCH   7   9
ENDBRANCH   1   3
BRANCH   2  11
ATOM     11  C   UNL     1       5.107  -2.223 -22.542  1.00  0.00     0.328 C 
ATOM     12  O   UNL     1       5.460  -1.757 -23.611  1.00  0.00    -0.247 OA
BRANCH  11  13
ATOM     13  O   UNL     1       4.389  -3.358 -22.432  1.00  0.00    -0.478 OA
ATOM     14  H   UNL     1       4.461  -3.821 -21.577  1.00  0.00     0.297 HD
ENDBRANCH  11  13
ENDBRANCH   2  11
TORSDOF 4
ENDMDL
MODEL 5
REMARK VINA RESULT:      -6.5      2.041      5.750
REMARK SMILES O=C(O)/C=C/c1cccc(O)c1
REMARK SMILES IDX 5 1 4 2 6 3 8 4 7 5 9 6 10 7 12 8 11 9 2 11 1 12 3 13
REMARK H PARENT 11 10 3 14
ROOT
ATOM      1  C   UNL     1       5.454   0.059 -26.096  1.00  0.00     0.016 C 
ATOM      2  C   UNL     1       5.350  -0.138 -27.420  1.00  0.00     0.094 C 
ENDROOT
BRANCH   1   3
ATOM      3  C   UNL     1       4.712  -0.729 -25.106  1.00  0.00    -0.022 A 
ATOM      4  C   UNL     1       2.571  -1.473 -24.231  1.00  0.00     0.004 A 
ATOM      5  C   UNL     1       3.312  -0.746 -25.166  1.00  0.00     0.008 A 
ATOM      6  C   UNL     1       3.223  -2.177 -23.222  1.00  0.00     0.046 A 
ATOM      7  C   UNL     1       4.610  -2.145 -23.149  1.00  0.00     0.116 A 
ATOM      8  C   UNL     1       5.362  -1.427 -24.077  1.00  0.00     0.054 A 
BRANCH   7   9
ATOM      9  O   UNL     1       5.206  -2.835 -22.134  1.00  0.00    -0.508 OA
ATOM     10  H   UNL     1       5.982  -2.338 -21.828  1.00  0.00     0.293 HD
ENDBRANCH   7   9
ENDBRANCH   1   3
BRANCH   2  11
ATOM     11  C   UNL     1       6.126   0.719 -28.338  1.00  0.00     0.328 C 
ATOM     12  O   UNL     1       5.878   0.870 -29.522  1.00  0.00    -0.247 OA
BRANCH  11  13
ATOM     13  O   UNL     1       7.152   1.328 -27.714  1.00  0.00    -0.478 OA
ATOM     14  H   UNL     1       7.896   0.751 -27.463  1.00  0.00     0.297 HD
ENDBRANCH  11  13
ENDBRANCH   2  11
TORSDOF 4
ENDMDL
MODEL 6
REMARK VINA RESULT:      -6.5      1.378      2.016
REMARK SMILES O=C(O)/C=C/c1cccc(O)c1
REMARK SMILES IDX 5 1 4 2 6 3 8 4 7 5 9 6 10 7 12 8 11 9 2 11 1 12 3 13
REMARK H PARENT 11 10 3 14
ROOT
ATOM      1  C   UNL     1       5.261  -2.444 -21.786  1.00  0.00     0.016 C 
ATOM      2  C   UNL     1       6.054  -1.767 -20.940  1.00  0.00     0.094 C 
ENDROOT
BRANCH   1   3
ATOM      3  C   UNL     1       4.838  -1.915 -23.087  1.00  0.00    -0.022 A 
ATOM      4  C   UNL     1       5.436  -0.830 -25.177  1.00  0.00     0.004 A 
ATOM      5  C   UNL     1       5.803  -1.357 -23.936  1.00  0.00     0.008 A 
ATOM      6  C   UNL     1       4.100  -0.845 -25.571  1.00  0.00     0.046 A 
ATOM      7  C   UNL     1       3.140  -1.379 -24.722  1.00  0.00     0.116 A 
ATOM      8  C   UNL     1       3.493  -1.912 -23.483  1.00  0.00     0.054 A 
BRANCH   7   9
ATOM      9  O   UNL     1       1.842  -1.357 -25.141  1.00  0.00    -0.508 OA
ATOM     10  H   UNL     1       1.782  -0.825 -25.952  1.00  0.00     0.293 HD
ENDBRANCH   7   9
ENDBRANCH   1   3
BRANCH   2  11
ATOM     11  C   UNL     1       6.412  -2.376 -19.644  1.00  0.00     0.328 C 
ATOM     12  O   UNL     1       6.253  -1.844 -18.559  1.00  0.00    -0.247 OA
BRANCH  11  13
ATOM     13  O   UNL     1       6.939  -3.607 -19.793  1.00  0.00    -0.478 OA
ATOM     14  H   UNL     1       6.964  -4.156 -18.988  1.00  0.00     0.297 HD
ENDBRANCH  11  13
ENDBRANCH   2  11
TORSDOF 4
ENDMDL
MODEL 7
REMARK VINA RESULT:      -6.1     13.501     16.495
REMARK SMILES O=C(O)/C=C/c1cccc(O)c1
REMARK SMILES IDX 5 1 4 2 6 3 8 4 7 5 9 6 10 7 12 8 11 9 2 11 1 12 3 13
REMARK H PARENT 11 10 3 14
ROOT
ATOM      1  C   UNL     1      -8.559   1.720 -31.959  1.00  0.00     0.016 C 
ATOM      2  C   UNL     1      -8.931   0.797 -32.861  1.00  0.00     0.094 C 
ENDROOT
BRANCH   1   3
ATOM      3  C   UNL     1      -7.193   1.828 -31.437  1.00  0.00    -0.022 A 
ATOM      4  C   UNL     1      -5.708   2.509 -29.639  1.00  0.00     0.004 A 
ATOM      5  C   UNL     1      -6.997   2.376 -30.163  1.00  0.00     0.008 A 
ATOM      6  C   UNL     1      -4.607   2.107 -30.391  1.00  0.00     0.046 A 
ATOM      7  C   UNL     1      -4.798   1.582 -31.662  1.00  0.00     0.116 A 
ATOM      8  C   UNL     1      -6.078   1.441 -32.196  1.00  0.00     0.054 A 
BRANCH   7   9
ATOM      9  O   UNL     1      -3.690   1.219 -32.369  1.00  0.00    -0.508 OA
ATOM     10  H   UNL     1      -2.924   1.210 -31.772  1.00  0.00     0.293 HD
ENDBRANCH   7   9
ENDBRANCH   1   3
BRANCH   2  11
ATOM     11  C   UNL     1     -10.335   0.758 -33.314  1.00  0.00     0.328 C 
ATOM     12  O   UNL     1     -10.856  -0.187 -33.881  1.00  0.00    -0.247 OA
BRANCH  11  13
ATOM     13  O   UNL     1     -10.991   1.899 -33.025  1.00  0.00    -0.478 OA
ATOM     14  H   UNL     1     -11.905   1.957 -33.360  1.00  0.00     0.297 HD
ENDBRANCH  11  13
ENDBRANCH   2  11
TORSDOF 4
ENDMDL
MODEL 8
REMARK VINA RESULT:      -6.0      4.102      7.406
REMARK SMILES O=C(O)/C=C/c1cccc(O)c1
REMARK SMILES IDX 5 1 4 2 6 3 8 4 7 5 9 6 10 7 12 8 11 9 2 11 1 12 3 13
REMARK H PARENT 11 10 3 14
ROOT
ATOM      1  C   UNL     1       7.811  -1.297 -19.107  1.00  0.00     0.016 C 
ATOM      2  C   UNL     1       6.530  -1.491 -19.461  1.00  0.00     0.094 C 
ENDROOT
BRANCH   1   3
ATOM      3  C   UNL     1       8.213  -0.448 -17.981  1.00  0.00    -0.022 A 
ATOM      4  C   UNL     1       9.704  -0.066 -16.101  1.00  0.00     0.004 A 
ATOM      5  C   UNL     1       9.301  -0.842 -17.191  1.00  0.00     0.008 A 
ATOM      6  C   UNL     1       9.013   1.101 -15.785  1.00  0.00     0.046 A 
ATOM      7  C   UNL     1       7.922   1.482 -16.555  1.00  0.00     0.116 A 
ATOM      8  C   UNL     1       7.511   0.720 -17.647  1.00  0.00     0.054 A 
BRANCH   7   9
ATOM      9  O   UNL     1       7.265   2.624 -16.198  1.00  0.00    -0.508 OA
ATOM     10  H   UNL     1       7.409   3.298 -16.882  1.00  0.00     0.293 HD
ENDBRANCH   7   9
ENDBRANCH   1   3
BRANCH   2  11
ATOM     11  C   UNL     1       6.225  -2.351 -20.621  1.00  0.00     0.328 C 
ATOM     12  O   UNL     1       5.595  -1.997 -21.602  1.00  0.00    -0.247 OA
BRANCH  11  13
ATOM     13  O   UNL     1       6.731  -3.592 -20.476  1.00  0.00    -0.478 OA
ATOM     14  H   UNL     1       6.621  -3.992 -19.594  1.00  0.00     0.297 HD
ENDBRANCH  11  13
ENDBRANCH   2  11
TORSDOF 4
ENDMDL
MODEL 9
REMARK VINA RESULT:      -5.9     13.353     16.326
REMARK SMILES O=C(O)/C=C/c1cccc(O)c1
REMARK SMILES IDX 5 1 4 2 6 3 8 4 7 5 9 6 10 7 12 8 11 9 2 11 1 12 3 13
REMARK H PARENT 11 10 3 14
ROOT
ATOM      1  C   UNL     1      -8.476   0.508 -31.733  1.00  0.00     0.016 C 
ATOM      2  C   UNL     1      -9.029   0.659 -32.947  1.00  0.00     0.094 C 
ENDROOT
BRANCH   1   3
ATOM      3  C   UNL     1      -7.033   0.339 -31.523  1.00  0.00    -0.022 A 
ATOM      4  C   UNL     1      -5.226  -0.769 -30.336  1.00  0.00     0.004 A 
ATOM      5  C   UNL     1      -6.592  -0.592 -30.574  1.00  0.00     0.008 A 
ATOM      6  C   UNL     1      -4.294  -0.006 -31.035  1.00  0.00     0.046 A 
ATOM      7  C   UNL     1      -4.731   0.932 -31.961  1.00  0.00     0.116 A 
ATOM      8  C   UNL     1      -6.090   1.116 -32.211  1.00  0.00     0.054 A 
BRANCH   7   9
ATOM      9  O   UNL     1      -3.783   1.669 -32.609  1.00  0.00    -0.508 OA
ATOM     10  H   UNL     1      -4.215   2.417 -33.053  1.00  0.00     0.293 HD
ENDBRANCH   7   9
ENDBRANCH   1   3
BRANCH   2  11
ATOM     11  C   UNL     1     -10.493   0.805 -33.058  1.00  0.00     0.328 C 
ATOM     12  O   UNL     1     -11.279  -0.122 -33.137  1.00  0.00    -0.247 OA
BRANCH  11  13
ATOM     13  O   UNL     1     -10.874   2.098 -33.059  1.00  0.00    -0.478 OA
ATOM     14  H   UNL     1     -11.355   2.397 -32.266  1.00  0.00     0.297 HD
ENDBRANCH  11  13
ENDBRANCH   2  11
TORSDOF 4
ENDMDL
MODEL 10
REMARK VINA RESULT:      -5.9     11.718     13.067
REMARK SMILES O=C(O)/C=C/c1cccc(O)c1
REMARK SMILES IDX 5 1 4 2 6 3 8 4 7 5 9 6 10 7 12 8 11 9 2 11 1 12 3 13
REMARK H PARENT 11 10 3 14
ROOT
ATOM      1  C   UNL     1      -3.661 -10.114 -27.508  1.00  0.00     0.016 C 
ATOM      2  C   UNL     1      -4.467 -10.753 -26.645  1.00  0.00     0.094 C 
ENDROOT
BRANCH   1   3
ATOM      3  C   UNL     1      -2.219  -9.950 -27.290  1.00  0.00    -0.022 A 
ATOM      4  C   UNL     1      -0.285  -8.481 -27.239  1.00  0.00     0.004 A 
ATOM      5  C   UNL     1      -1.657  -8.674 -27.424  1.00  0.00     0.008 A 
ATOM      6  C   UNL     1       0.535  -9.564 -26.932  1.00  0.00     0.046 A 
ATOM      7  C   UNL     1      -0.019 -10.833 -26.820  1.00  0.00     0.116 A 
ATOM      8  C   UNL     1      -1.386 -11.039 -26.998  1.00  0.00     0.054 A 
BRANCH   7   9
ATOM      9  O   UNL     1       0.824 -11.868 -26.536  1.00  0.00    -0.508 OA
ATOM     10  H   UNL     1       0.558 -12.643 -27.056  1.00  0.00     0.293 HD
ENDBRANCH   7   9
ENDBRANCH   1   3
BRANCH   2  11
ATOM     11  C   UNL     1      -5.908 -10.853 -26.945  1.00  0.00     0.328 C 
ATOM     12  O   UNL     1      -6.598 -11.831 -26.720  1.00  0.00    -0.247 OA
BRANCH  11  13
ATOM     13  O   UNL     1      -6.388  -9.723 -27.502  1.00  0.00    -0.478 OA
ATOM     14  H   UNL     1      -7.359  -9.642 -27.522  1.00  0.00     0.297 HD
ENDBRANCH  11  13
ENDBRANCH   2  11
TORSDOF 4
ENDMDL
