MODEL 1
REMARK VINA RESULT:      -6.0      0.000      0.000
REMARK SMILES C=C(C)[C@H]1CC=C(C)CC1
REMARK SMILES IDX 8 1 7 2 6 3 5 4 4 5 10 6 9 7 2 8 1 9 3 10
REMARK H PARENT
ROOT
ATOM      1  C   UNL     1       9.353  -1.031 -15.548  1.00  0.00     0.039 C 
ATOM      2  C   UNL     1       8.338  -0.945 -16.651  1.00  0.00    -0.077 C 
ATOM      3  C   UNL     1       7.022  -0.819 -16.404  1.00  0.00    -0.027 C 
ATOM      4  C   UNL     1       5.972  -0.779 -17.482  1.00  0.00     0.035 C 
ATOM      5  C   UNL     1       6.474  -1.187 -18.890  1.00  0.00     0.018 C 
ATOM      6  C   UNL     1       7.867  -0.575 -19.119  1.00  0.00     0.013 C 
ATOM      7  C   UNL     1       8.880  -1.014 -18.057  1.00  0.00     0.031 C 
ENDROOT
BRANCH   5   8
ATOM      8  C   UNL     1       6.447  -2.685 -19.216  1.00  0.00    -0.077 C 
ATOM      9  C   UNL     1       5.981  -3.643 -18.395  1.00  0.00     0.008 C 
ATOM     10  C   UNL     1       6.960  -3.059 -20.585  1.00  0.00     0.039 C 
ENDBRANCH   5   8
TORSDOF 1
ENDMDL
MODEL 2
REMARK VINA RESULT:      -5.4      1.519      4.093
REMARK SMILES C=C(C)[C@H]1CC=C(C)CC1
REMARK SMILES IDX 8 1 7 2 6 3 5 4 4 5 10 6 9 7 2 8 1 9 3 10
REMARK H PARENT
ROOT
ATOM      1  C   UNL     1       6.325  -1.540 -20.249  1.00  0.00     0.039 C 
ATOM      2  C   UNL     1       6.919  -1.323 -18.887  1.00  0.00    -0.077 C 
ATOM      3  C   UNL     1       6.200  -1.470 -17.761  1.00  0.00    -0.027 C 
ATOM      4  C   UNL     1       6.749  -1.213 -16.382  1.00  0.00     0.035 C 
ATOM      5  C   UNL     1       8.116  -0.485 -16.355  1.00  0.00     0.018 C 
ATOM      6  C   UNL     1       9.010  -1.059 -17.468  1.00  0.00     0.013 C 
ATOM      7  C   UNL     1       8.375  -0.924 -18.856  1.00  0.00     0.031 C 
ENDROOT
BRANCH   5   8
ATOM      8  C   UNL     1       8.072   1.048 -16.390  1.00  0.00    -0.077 C 
ATOM      9  C   UNL     1       7.076   1.778 -16.922  1.00  0.00     0.008 C 
ATOM     10  C   UNL     1       9.241   1.743 -15.737  1.00  0.00     0.039 C 
ENDBRANCH   5   8
TORSDOF 1
ENDMDL
MODEL 3
REMARK VINA RESULT:      -5.4     14.413     16.470
REMARK SMILES C=C(C)[C@H]1CC=C(C)CC1
REMARK SMILES IDX 8 1 7 2 6 3 5 4 4 5 10 6 9 7 2 8 1 9 3 10
REMARK H PARENT
ROOT
ATOM      1  C   UNL     1      -6.707  -0.515 -31.130  1.00  0.00     0.039 C 
ATOM      2  C   UNL     1      -5.394  -0.771 -30.449  1.00  0.00    -0.077 C 
ATOM      3  C   UNL     1      -5.210  -1.810 -29.616  1.00  0.00    -0.027 C 
ATOM      4  C   UNL     1      -3.923  -2.070 -28.879  1.00  0.00     0.035 C 
ATOM      5  C   UNL     1      -2.910  -0.898 -28.913  1.00  0.00     0.018 C 
ATOM      6  C   UNL     1      -2.903  -0.285 -30.324  1.00  0.00     0.013 C 
ATOM      7  C   UNL     1      -4.288   0.211 -30.752  1.00  0.00     0.031 C 
ENDROOT
BRANCH   5   8
ATOM      8  C   UNL     1      -3.068   0.171 -27.825  1.00  0.00    -0.077 C 
ATOM      9  C   UNL     1      -3.999   0.150 -26.854  1.00  0.00     0.008 C 
ATOM     10  C   UNL     1      -2.059   1.293 -27.869  1.00  0.00     0.039 C 
ENDBRANCH   5   8
TORSDOF 1
ENDMDL
MODEL 4
REMARK VINA RESULT:      -5.3     14.138     15.531
REMARK SMILES C=C(C)[C@H]1CC=C(C)CC1
REMARK SMILES IDX 8 1 7 2 6 3 5 4 4 5 10 6 9 7 2 8 1 9 3 10
REMARK H PARENT
ROOT
ATOM      1  C   UNL     1      -5.283  -1.041 -25.747  1.00  0.00     0.039 C 
ATOM      2  C   UNL     1      -4.303  -0.650 -26.814  1.00  0.00    -0.077 C 
ATOM      3  C   UNL     1      -3.493   0.415 -26.686  1.00  0.00    -0.027 C 
ATOM      4  C   UNL     1      -2.533   0.866 -27.756  1.00  0.00     0.035 C 
ATOM      5  C   UNL     1      -2.743   0.196 -29.137  1.00  0.00     0.018 C 
ATOM      6  C   UNL     1      -3.049  -1.297 -28.927  1.00  0.00     0.013 C 
ATOM      7  C   UNL     1      -4.282  -1.522 -28.046  1.00  0.00     0.031 C 
ENDROOT
BRANCH   5   8
ATOM      8  C   UNL     1      -3.761   0.863 -30.071  1.00  0.00    -0.077 C 
ATOM      9  C   UNL     1      -4.461   1.973 -29.779  1.00  0.00     0.008 C 
ATOM     10  C   UNL     1      -3.929   0.206 -31.419  1.00  0.00     0.039 C 
ENDBRANCH   5   8
TORSDOF 1
ENDMDL
MODEL 5
REMARK VINA RESULT:      -5.2     14.511     16.506
REMARK SMILES C=C(C)[C@H]1CC=C(C)CC1
REMARK SMILES IDX 8 1 7 2 6 3 5 4 4 5 10 6 9 7 2 8 1 9 3 10
REMARK H PARENT
ROOT
ATOM      1  C   UNL     1      -7.737  -0.655 -29.648  1.00  0.00     0.039 C 
ATOM      2  C   UNL     1      -6.359  -1.125 -29.281  1.00  0.00    -0.077 C 
ATOM      3  C   UNL     1      -6.094  -1.707 -28.098  1.00  0.00    -0.027 C 
ATOM      4  C   UNL     1      -4.716  -2.145 -27.676  1.00  0.00     0.035 C 
ATOM      5  C   UNL     1      -3.567  -1.618 -28.571  1.00  0.00     0.018 C 
ATOM      6  C   UNL     1      -4.005  -1.697 -30.044  1.00  0.00     0.013 C 
ATOM      7  C   UNL     1      -5.285  -0.900 -30.317  1.00  0.00     0.031 C 
ENDROOT
BRANCH   5   8
ATOM      8  C   UNL     1      -3.003  -0.237 -28.216  1.00  0.00    -0.077 C 
ATOM      9  C   UNL     1      -3.377   0.496 -27.151  1.00  0.00     0.008 C 
ATOM     10  C   UNL     1      -1.929   0.281 -29.140  1.00  0.00     0.039 C 
ENDBRANCH   5   8
TORSDOF 1
ENDMDL
MODEL 6
REMARK VINA RESULT:      -5.2     14.260     15.856
REMARK SMILES C=C(C)[C@H]1CC=C(C)CC1
REMARK SMILES IDX 8 1 7 2 6 3 5 4 4 5 10 6 9 7 2 8 1 9 3 10
REMARK H PARENT
ROOT
ATOM      1  C   UNL     1      -2.355   1.557 -27.793  1.00  0.00     0.039 C 
ATOM      2  C   UNL     1      -3.074   0.243 -27.895  1.00  0.00    -0.077 C 
ATOM      3  C   UNL     1      -2.741  -0.685 -28.808  1.00  0.00    -0.027 C 
ATOM      4  C   UNL     1      -3.470  -1.992 -28.972  1.00  0.00     0.035 C 
ATOM      5  C   UNL     1      -4.819  -2.080 -28.215  1.00  0.00     0.018 C 
ATOM      6  C   UNL     1      -4.655  -1.434 -26.828  1.00  0.00     0.013 C 
ATOM      7  C   UNL     1      -4.200   0.026 -26.914  1.00  0.00     0.031 C 
ENDROOT
BRANCH   5   8
ATOM      8  C   UNL     1      -6.052  -1.545 -28.953  1.00  0.00    -0.077 C 
ATOM      9  C   UNL     1      -6.053  -1.089 -30.218  1.00  0.00     0.008 C 
ATOM     10  C   UNL     1      -7.342  -1.586 -28.172  1.00  0.00     0.039 C 
ENDBRANCH   5   8
TORSDOF 1
ENDMDL
MODEL 7
REMARK VINA RESULT:      -5.2      1.025      3.970
REMARK SMILES C=C(C)[C@H]1CC=C(C)CC1
REMARK SMILES IDX 8 1 7 2 6 3 5 4 4 5 10 6 9 7 2 8 1 9 3 10
REMARK H PARENT
ROOT
ATOM      1  C   UNL     1       6.715  -2.726 -19.787  1.00  0.00     0.039 C 
ATOM      2  C   UNL     1       7.059  -1.668 -18.779  1.00  0.00    -0.077 C 
ATOM      3  C   UNL     1       7.819  -0.603 -19.091  1.00  0.00    -0.027 C 
ATOM      4  C   UNL     1       8.225   0.451 -18.095  1.00  0.00     0.035 C 
ATOM      5  C   UNL     1       7.955   0.082 -16.615  1.00  0.00     0.018 C 
ATOM      6  C   UNL     1       6.586  -0.614 -16.517  1.00  0.00     0.013 C 
ATOM      7  C   UNL     1       6.505  -1.870 -17.390  1.00  0.00     0.031 C 
ENDROOT
BRANCH   5   8
ATOM      8  C   UNL     1       9.053  -0.713 -15.899  1.00  0.00    -0.077 C 
ATOM      9  C   UNL     1       8.842  -1.790 -15.122  1.00  0.00     0.008 C 
ATOM     10  C   UNL     1      10.463  -0.231 -16.141  1.00  0.00     0.039 C 
ENDBRANCH   5   8
TORSDOF 1
ENDMDL
MODEL 8
REMARK VINA RESULT:      -5.1     14.539     16.225
REMARK SMILES C=C(C)[C@H]1CC=C(C)CC1
REMARK SMILES IDX 8 1 7 2 6 3 5 4 4 5 10 6 9 7 2 8 1 9 3 10
REMARK H PARENT
ROOT
ATOM      1  C   UNL     1      -4.940   1.820 -31.425  1.00  0.00     0.039 C 
ATOM      2  C   UNL     1      -4.212   0.820 -30.575  1.00  0.00    -0.077 C 
ATOM      3  C   UNL     1      -4.228  -0.497 -30.847  1.00  0.00    -0.027 C 
ATOM      4  C   UNL     1      -3.551  -1.533 -29.989  1.00  0.00     0.035 C 
ATOM      5  C   UNL     1      -3.075  -1.020 -28.608  1.00  0.00     0.018 C 
ATOM      6  C   UNL     1      -2.469   0.384 -28.779  1.00  0.00     0.013 C 
ATOM      7  C   UNL     1      -3.461   1.378 -29.391  1.00  0.00     0.031 C 
ENDROOT
BRANCH   5   8
ATOM      8  C   UNL     1      -4.105  -1.063 -27.472  1.00  0.00    -0.077 C 
ATOM      9  C   UNL     1      -4.214  -0.144 -26.497  1.00  0.00     0.008 C 
ATOM     10  C   UNL     1      -5.066  -2.226 -27.515  1.00  0.00     0.039 C 
ENDBRANCH   5   8
TORSDOF 1
ENDMDL
MODEL 9
REMARK VINA RESULT:      -5.1     14.072     15.519
REMARK SMILES C=C(C)[C@H]1CC=C(C)CC1
REMARK SMILES IDX 8 1 7 2 6 3 5 4 4 5 10 6 9 7 2 8 1 9 3 10
REMARK H PARENT
ROOT
ATOM      1  C   UNL     1      -3.332  -2.192 -30.108  1.00  0.00     0.039 C 
ATOM      2  C   UNL     1      -3.197  -1.080 -29.109  1.00  0.00    -0.077 C 
ATOM      3  C   UNL     1      -3.958  -1.015 -28.003  1.00  0.00    -0.027 C 
ATOM      4  C   UNL     1      -3.884   0.110 -27.005  1.00  0.00     0.035 C 
ATOM      5  C   UNL     1      -3.078   1.345 -27.480  1.00  0.00     0.018 C 
ATOM      6  C   UNL     1      -1.821   0.864 -28.225  1.00  0.00     0.013 C 
ATOM      7  C   UNL     1      -2.156  -0.032 -29.422  1.00  0.00     0.031 C 
ENDROOT
BRANCH   5   8
ATOM      8  C   UNL     1      -3.853   2.395 -28.286  1.00  0.00    -0.077 C 
ATOM      9  C   UNL     1      -3.338   3.554 -28.735  1.00  0.00     0.008 C 
ATOM     10  C   UNL     1      -5.286   2.042 -28.601  1.00  0.00     0.039 C 
ENDBRANCH   5   8
TORSDOF 1
ENDMDL
MODEL 10
REMARK VINA RESULT:      -5.0     14.667     16.334
REMARK SMILES C=C(C)[C@H]1CC=C(C)CC1
REMARK SMILES IDX 8 1 7 2 6 3 5 4 4 5 10 6 9 7 2 8 1 9 3 10
REMARK H PARENT
ROOT
ATOM      1  C   UNL     1      -4.573   2.861 -30.064  1.00  0.00     0.039 C 
ATOM      2  C   UNL     1      -4.034   1.475 -29.856  1.00  0.00    -0.077 C 
ATOM      3  C   UNL     1      -3.930   0.590 -30.862  1.00  0.00    -0.027 C 
ATOM      4  C   UNL     1      -3.441  -0.823 -30.682  1.00  0.00     0.035 C 
ATOM      5  C   UNL     1      -3.340  -1.289 -29.208  1.00  0.00     0.018 C 
ATOM      6  C   UNL     1      -2.768  -0.140 -28.359  1.00  0.00     0.013 C 
ATOM      7  C   UNL     1      -3.620   1.130 -28.446  1.00  0.00     0.031 C 
ENDROOT
BRANCH   5   8
ATOM      8  C   UNL     1      -4.614  -1.878 -28.590  1.00  0.00    -0.077 C 
ATOM      9  C   UNL     1      -4.770  -2.177 -27.288  1.00  0.00     0.008 C 
ATOM     10  C   UNL     1      -5.760  -2.090 -29.548  1.00  0.00     0.039 C 
ENDBRANCH   5   8
TORSDOF 1
ENDMDL
