MODEL 1
REMARK VINA RESULT:      -7.5      0.000      0.000
REMARK SMILES CC(C)=CCC/C(C)=C/C=O
REMARK SMILES IDX 5 1 4 2 2 3 1 4 3 5 6 6 7 7 9 8 8 9 10 10 11 11
REMARK H PARENT
ROOT
ATOM      1  C   UNL     1       5.509  -2.014 -22.275  1.00  0.00     0.032 C 
ENDROOT
BRANCH   1   2
ATOM      2  C   UNL     1       5.634  -2.876 -21.047  1.00  0.00    -0.028 C 
ATOM      3  C   UNL     1       6.199  -2.552 -19.868  1.00  0.00    -0.080 C 
ATOM      4  C   UNL     1       6.870  -1.242 -19.559  1.00  0.00     0.039 C 
ATOM      5  C   UNL     1       6.207  -3.536 -18.725  1.00  0.00     0.039 C 
ENDBRANCH   1   2
BRANCH   1   6
ATOM      6  C   UNL     1       4.370  -2.497 -23.181  1.00  0.00     0.035 C 
BRANCH   6   7
ATOM      7  C   UNL     1       4.109  -1.559 -24.348  1.00  0.00    -0.070 C 
ATOM      8  C   UNL     1       5.143  -1.127 -25.094  1.00  0.00     0.042 C 
ATOM      9  C   UNL     1       2.659  -1.222 -24.580  1.00  0.00     0.039 C 
BRANCH   8  10
ATOM     10  C   UNL     1       5.063  -0.206 -26.249  1.00  0.00     0.252 C 
ATOM     11  O   UNL     1       6.014   0.500 -26.561  1.00  0.00    -0.299 OA
ENDBRANCH   8  10
ENDBRANCH   6   7
ENDBRANCH   1   6
TORSDOF 4
ENDMDL
MODEL 2
REMARK VINA RESULT:      -7.3      1.537      2.210
REMARK SMILES CC(C)=CCC/C(C)=C/C=O
REMARK SMILES IDX 5 1 4 2 2 3 1 4 3 5 6 6 7 7 9 8 8 9 10 10 11 11
REMARK H PARENT
ROOT
ATOM      1  C   UNL     1       6.340  -2.994 -20.787  1.00  0.00     0.032 C 
ENDROOT
BRANCH   1   2
ATOM      2  C   UNL     1       6.082  -2.813 -19.315  1.00  0.00    -0.028 C 
ATOM      3  C   UNL     1       6.621  -1.893 -18.492  1.00  0.00    -0.080 C 
ATOM      4  C   UNL     1       7.648  -0.868 -18.890  1.00  0.00     0.039 C 
ATOM      5  C   UNL     1       6.220  -1.834 -17.039  1.00  0.00     0.039 C 
ENDBRANCH   1   2
BRANCH   1   6
ATOM      6  C   UNL     1       5.877  -1.772 -21.589  1.00  0.00     0.035 C 
BRANCH   6   7
ATOM      7  C   UNL     1       5.004  -2.144 -22.776  1.00  0.00    -0.070 C 
ATOM      8  C   UNL     1       5.096  -1.429 -23.914  1.00  0.00     0.042 C 
ATOM      9  C   UNL     1       4.115  -3.341 -22.562  1.00  0.00     0.039 C 
BRANCH   8  10
ATOM     10  C   UNL     1       4.312  -1.650 -25.150  1.00  0.00     0.252 C 
ATOM     11  O   UNL     1       3.202  -1.152 -25.291  1.00  0.00    -0.299 OA
ENDBRANCH   8  10
ENDBRANCH   6   7
ENDBRANCH   1   6
TORSDOF 4
ENDMDL
MODEL 3
REMARK VINA RESULT:      -6.9      3.628      6.518
REMARK SMILES CC(C)=CCC/C(C)=C/C=O
REMARK SMILES IDX 5 1 4 2 2 3 1 4 3 5 6 6 7 7 9 8 8 9 10 10 11 11
REMARK H PARENT
ROOT
ATOM      1  C   UNL     1       6.072  -2.366 -20.325  1.00  0.00     0.032 C 
ENDROOT
BRANCH   1   2
ATOM      2  C   UNL     1       5.924  -1.832 -21.724  1.00  0.00    -0.028 C 
ATOM      3  C   UNL     1       5.053  -2.233 -22.671  1.00  0.00    -0.080 C 
ATOM      4  C   UNL     1       4.062  -3.355 -22.519  1.00  0.00     0.039 C 
ATOM      5  C   UNL     1       5.020  -1.558 -24.019  1.00  0.00     0.039 C 
ENDBRANCH   1   2
BRANCH   1   6
ATOM      6  C   UNL     1       7.411  -1.947 -19.708  1.00  0.00     0.035 C 
BRANCH   6   7
ATOM      7  C   UNL     1       7.243  -1.127 -18.439  1.00  0.00    -0.070 C 
ATOM      8  C   UNL     1       8.053  -0.073 -18.221  1.00  0.00     0.042 C 
ATOM      9  C   UNL     1       6.123  -1.573 -17.537  1.00  0.00     0.039 C 
BRANCH   8  10
ATOM     10  C   UNL     1       8.031   0.815 -17.038  1.00  0.00     0.252 C 
ATOM     11  O   UNL     1       8.683   0.547 -16.035  1.00  0.00    -0.299 OA
ENDBRANCH   8  10
ENDBRANCH   6   7
ENDBRANCH   1   6
TORSDOF 4
ENDMDL
MODEL 4
REMARK VINA RESULT:      -6.7      2.761      5.909
REMARK SMILES CC(C)=CCC/C(C)=C/C=O
REMARK SMILES IDX 5 1 4 2 2 3 1 4 3 5 6 6 7 7 9 8 8 9 10 10 11 11
REMARK H PARENT
ROOT
ATOM      1  C   UNL     1       4.837  -2.290 -22.009  1.00  0.00     0.032 C 
ENDROOT
BRANCH   1   2
ATOM      2  C   UNL     1       5.154  -1.833 -23.408  1.00  0.00    -0.028 C 
ATOM      3  C   UNL     1       4.288  -1.432 -24.360  1.00  0.00    -0.080 C 
ATOM      4  C   UNL     1       2.791  -1.405 -24.214  1.00  0.00     0.039 C 
ATOM      5  C   UNL     1       4.786  -0.972 -25.706  1.00  0.00     0.039 C 
ENDBRANCH   1   2
BRANCH   1   6
ATOM      6  C   UNL     1       6.021  -3.036 -21.385  1.00  0.00     0.035 C 
BRANCH   6   7
ATOM      7  C   UNL     1       6.338  -2.564 -19.975  1.00  0.00    -0.070 C 
ATOM      8  C   UNL     1       6.871  -1.341 -19.792  1.00  0.00     0.042 C 
ATOM      9  C   UNL     1       5.978  -3.536 -18.883  1.00  0.00     0.039 C 
BRANCH   8  10
ATOM     10  C   UNL     1       7.249  -0.738 -18.495  1.00  0.00     0.252 C 
ATOM     11  O   UNL     1       8.398  -0.807 -18.077  1.00  0.00    -0.299 OA
ENDBRANCH   8  10
ENDBRANCH   6   7
ENDBRANCH   1   6
TORSDOF 4
ENDMDL
MODEL 5
REMARK VINA RESULT:      -6.1      2.743      4.830
REMARK SMILES CC(C)=CCC/C(C)=C/C=O
REMARK SMILES IDX 5 1 4 2 2 3 1 4 3 5 6 6 7 7 9 8 8 9 10 10 11 11
REMARK H PARENT
ROOT
ATOM      1  C   UNL     1       8.096  -1.089 -18.875  1.00  0.00     0.032 C 
ENDROOT
BRANCH   1   2
ATOM      2  C   UNL     1       8.326   0.101 -17.983  1.00  0.00    -0.028 C 
ATOM      3  C   UNL     1       8.745   0.102 -16.702  1.00  0.00    -0.080 C 
ATOM      4  C   UNL     1       9.028  -1.126 -15.882  1.00  0.00     0.039 C 
ATOM      5  C   UNL     1       8.956   1.400 -15.964  1.00  0.00     0.039 C 
ENDBRANCH   1   2
BRANCH   1   6
ATOM      6  C   UNL     1       6.607  -1.267 -19.193  1.00  0.00     0.035 C 
BRANCH   6   7
ATOM      7  C   UNL     1       6.368  -2.090 -20.449  1.00  0.00    -0.070 C 
ATOM      8  C   UNL     1       5.460  -1.671 -21.351  1.00  0.00     0.042 C 
ATOM      9  C   UNL     1       7.229  -3.319 -20.576  1.00  0.00     0.039 C 
BRANCH   8  10
ATOM     10  C   UNL     1       5.101  -2.358 -22.611  1.00  0.00     0.252 C 
ATOM     11  O   UNL     1       5.176  -1.780 -23.689  1.00  0.00    -0.299 OA
ENDBRANCH   8  10
ENDBRANCH   6   7
ENDBRANCH   1   6
TORSDOF 4
ENDMDL
MODEL 6
REMARK VINA RESULT:      -6.0      4.524      7.508
REMARK SMILES CC(C)=CCC/C(C)=C/C=O
REMARK SMILES IDX 5 1 4 2 2 3 1 4 3 5 6 6 7 7 9 8 8 9 10 10 11 11
REMARK H PARENT
ROOT
ATOM      1  C   UNL     1       6.816  -1.304 -18.471  1.00  0.00     0.032 C 
ENDROOT
BRANCH   1   2
ATOM      2  C   UNL     1       6.132  -1.297 -19.811  1.00  0.00    -0.028 C 
ATOM      3  C   UNL     1       6.209  -2.229 -20.781  1.00  0.00    -0.080 C 
ATOM      4  C   UNL     1       7.054  -3.472 -20.723  1.00  0.00     0.039 C 
ATOM      5  C   UNL     1       5.423  -2.075 -22.058  1.00  0.00     0.039 C 
ENDBRANCH   1   2
BRANCH   1   6
ATOM      6  C   UNL     1       8.178  -0.604 -18.536  1.00  0.00     0.035 C 
BRANCH   6   7
ATOM      7  C   UNL     1       8.456   0.258 -17.315  1.00  0.00    -0.070 C 
ATOM      8  C   UNL     1       9.609   0.096 -16.639  1.00  0.00     0.042 C 
ATOM      9  C   UNL     1       7.385   1.267 -16.994  1.00  0.00     0.039 C 
BRANCH   8  10
ATOM     10  C   UNL     1      10.024   0.840 -15.430  1.00  0.00     0.252 C 
ATOM     11  O   UNL     1      10.584   1.926 -15.518  1.00  0.00    -0.299 OA
ENDBRANCH   8  10
ENDBRANCH   6   7
ENDBRANCH   1   6
TORSDOF 4
ENDMDL
MODEL 7
REMARK VINA RESULT:      -5.8      4.212      6.419
REMARK SMILES CC(C)=CCC/C(C)=C/C=O
REMARK SMILES IDX 5 1 4 2 2 3 1 4 3 5 6 6 7 7 9 8 8 9 10 10 11 11
REMARK H PARENT
ROOT
ATOM      1  C   UNL     1       8.017   0.598 -17.392  1.00  0.00     0.032 C 
ENDROOT
BRANCH   1   2
ATOM      2  C   UNL     1       9.312   0.733 -16.639  1.00  0.00    -0.028 C 
ATOM      3  C   UNL     1       9.860  -0.148 -15.779  1.00  0.00    -0.080 C 
ATOM      4  C   UNL     1       9.241  -1.454 -15.363  1.00  0.00     0.039 C 
ATOM      5  C   UNL     1      11.193   0.136 -15.134  1.00  0.00     0.039 C 
ENDBRANCH   1   2
BRANCH   1   6
ATOM      6  C   UNL     1       8.191  -0.257 -18.653  1.00  0.00     0.035 C 
BRANCH   6   7
ATOM      7  C   UNL     1       7.117  -1.323 -18.793  1.00  0.00    -0.070 C 
ATOM      8  C   UNL     1       7.052  -2.052 -19.924  1.00  0.00     0.042 C 
ATOM      9  C   UNL     1       6.221  -1.484 -17.594  1.00  0.00     0.039 C 
BRANCH   8  10
ATOM     10  C   UNL     1       6.065  -3.113 -20.224  1.00  0.00     0.252 C 
ATOM     11  O   UNL     1       5.450  -3.121 -21.283  1.00  0.00    -0.299 OA
ENDBRANCH   8  10
ENDBRANCH   6   7
ENDBRANCH   1   6
TORSDOF 4
ENDMDL
MODEL 8
REMARK VINA RESULT:      -5.8     11.439     12.742
REMARK SMILES CC(C)=CCC/C(C)=C/C=O
REMARK SMILES IDX 5 1 4 2 2 3 1 4 3 5 6 6 7 7 9 8 8 9 10 10 11 11
REMARK H PARENT
ROOT
ATOM      1  C   UNL     1      -1.025  -9.907 -27.318  1.00  0.00     0.032 C 
ENDROOT
BRANCH   1   2
ATOM      2  C   UNL     1      -0.448 -11.239 -26.921  1.00  0.00    -0.028 C 
ATOM      3  C   UNL     1       0.404 -11.499 -25.910  1.00  0.00    -0.080 C 
ATOM      4  C   UNL     1       0.992 -10.469 -24.985  1.00  0.00     0.039 C 
ATOM      5  C   UNL     1       0.857 -12.910 -25.632  1.00  0.00     0.039 C 
ENDBRANCH   1   2
BRANCH   1   6
ATOM      6  C   UNL     1      -2.305 -10.078 -28.145  1.00  0.00     0.035 C 
BRANCH   6   7
ATOM      7  C   UNL     1      -3.562  -9.748 -27.357  1.00  0.00    -0.070 C 
ATOM      8  C   UNL     1      -4.426 -10.733 -27.047  1.00  0.00     0.042 C 
ATOM      9  C   UNL     1      -3.702  -8.302 -26.960  1.00  0.00     0.039 C 
BRANCH   8  10
ATOM     10  C   UNL     1      -5.696 -10.579 -26.303  1.00  0.00     0.252 C 
ATOM     11  O   UNL     1      -5.920 -11.239 -25.295  1.00  0.00    -0.299 OA
ENDBRANCH   8  10
ENDBRANCH   6   7
ENDBRANCH   1   6
TORSDOF 4
ENDMDL
MODEL 9
REMARK VINA RESULT:      -5.7     10.571     11.757
REMARK SMILES CC(C)=CCC/C(C)=C/C=O
REMARK SMILES IDX 5 1 4 2 2 3 1 4 3 5 6 6 7 7 9 8 8 9 10 10 11 11
REMARK H PARENT
ROOT
ATOM      1  C   UNL     1       0.134  -9.754 -26.880  1.00  0.00     0.032 C 
ENDROOT
BRANCH   1   2
ATOM      2  C   UNL     1       0.824  -9.982 -25.563  1.00  0.00    -0.028 C 
ATOM      3  C   UNL     1       1.099 -11.161 -24.969  1.00  0.00    -0.080 C 
ATOM      4  C   UNL     1       0.717 -12.512 -25.508  1.00  0.00     0.039 C 
ATOM      5  C   UNL     1       1.833 -11.205 -23.654  1.00  0.00     0.039 C 
ENDBRANCH   1   2
BRANCH   1   6
ATOM      6  C   UNL     1      -1.090  -8.845 -26.718  1.00  0.00     0.035 C 
BRANCH   6   7
ATOM      7  C   UNL     1      -2.382  -9.512 -27.161  1.00  0.00    -0.070 C 
ATOM      8  C   UNL     1      -3.548  -8.855 -27.018  1.00  0.00     0.042 C 
ATOM      9  C   UNL     1      -2.215 -10.880 -27.768  1.00  0.00     0.039 C 
BRANCH   8  10
ATOM     10  C   UNL     1      -4.888  -9.365 -27.383  1.00  0.00     0.252 C 
ATOM     11  O   UNL     1      -5.678  -9.736 -26.523  1.00  0.00    -0.299 OA
ENDBRANCH   8  10
ENDBRANCH   6   7
ENDBRANCH   1   6
TORSDOF 4
ENDMDL
MODEL 10
REMARK VINA RESULT:      -5.5      5.071      8.159
REMARK SMILES CC(C)=CCC/C(C)=C/C=O
REMARK SMILES IDX 5 1 4 2 2 3 1 4 3 5 6 6 7 7 9 8 8 9 10 10 11 11
REMARK H PARENT
ROOT
ATOM      1  C   UNL     1       6.899  -0.771 -17.513  1.00  0.00     0.032 C 
ENDROOT
BRANCH   1   2
ATOM      2  C   UNL     1       6.816  -1.287 -18.924  1.00  0.00    -0.028 C 
ATOM      3  C   UNL     1       6.392  -2.497 -19.336  1.00  0.00    -0.080 C 
ATOM      4  C   UNL     1       5.947  -3.613 -18.431  1.00  0.00     0.039 C 
ATOM      5  C   UNL     1       6.343  -2.836 -20.804  1.00  0.00     0.039 C 
ENDBRANCH   1   2
BRANCH   1   6
ATOM      6  C   UNL     1       7.914   0.372 -17.396  1.00  0.00     0.035 C 
BRANCH   6   7
ATOM      7  C   UNL     1       9.037   0.064 -16.419  1.00  0.00    -0.070 C 
ATOM      8  C   UNL     1       9.983   0.993 -16.184  1.00  0.00     0.042 C 
ATOM      9  C   UNL     1       8.956  -1.290 -15.764  1.00  0.00     0.039 C 
BRANCH   8  10
ATOM     10  C   UNL     1      11.144   0.848 -15.279  1.00  0.00     0.252 C 
ATOM     11  O   UNL     1      12.096   0.138 -15.582  1.00  0.00    -0.299 OA
ENDBRANCH   8  10
ENDBRANCH   6   7
ENDBRANCH   1   6
TORSDOF 4
ENDMDL
