MODEL 1
REMARK VINA RESULT:      -5.9      0.000      0.000
REMARK SMILES CC1=CCC(C(C)C)=CC1
REMARK SMILES IDX 1 1 2 2 3 3 4 4 5 5 9 6 10 7 6 8 7 9 8 10
REMARK H PARENT
ROOT
ATOM      1  C   UNL     1       6.153  -1.842 -20.261  1.00  0.00     0.039 C 
ATOM      2  C   UNL     1       6.839  -1.376 -19.011  1.00  0.00    -0.073 C 
ATOM      3  C   UNL     1       6.194  -1.276 -17.834  1.00  0.00    -0.023 C 
ATOM      4  C   UNL     1       6.841  -0.815 -16.557  1.00  0.00     0.058 C 
ATOM      5  C   UNL     1       8.307  -0.455 -16.693  1.00  0.00    -0.068 C 
ATOM      6  C   UNL     1       8.944  -0.559 -17.876  1.00  0.00    -0.023 C 
ATOM      7  C   UNL     1       8.299  -1.024 -19.152  1.00  0.00     0.057 C 
ENDROOT
BRANCH   5   8
ATOM      8  C   UNL     1       9.044   0.029 -15.452  1.00  0.00     0.009 C 
ATOM      9  C   UNL     1      10.400  -0.661 -15.284  1.00  0.00     0.012 C 
ATOM     10  C   UNL     1       9.207   1.551 -15.435  1.00  0.00     0.012 C 
ENDBRANCH   5   8
TORSDOF 1
ENDMDL
MODEL 2
REMARK VINA RESULT:      -5.8      1.126      4.809
REMARK SMILES CC1=CCC(C(C)C)=CC1
REMARK SMILES IDX 1 1 2 2 3 3 4 4 5 5 9 6 10 7 6 8 7 9 8 10
REMARK H PARENT
ROOT
ATOM      1  C   UNL     1       8.468   1.219 -15.932  1.00  0.00     0.039 C 
ATOM      2  C   UNL     1       7.980   0.292 -17.006  1.00  0.00    -0.073 C 
ATOM      3  C   UNL     1       8.680   0.070 -18.133  1.00  0.00    -0.023 C 
ATOM      4  C   UNL     1       8.230  -0.850 -19.235  1.00  0.00     0.058 C 
ATOM      5  C   UNL     1       6.896  -1.523 -18.982  1.00  0.00    -0.068 C 
ATOM      6  C   UNL     1       6.203  -1.294 -17.848  1.00  0.00    -0.023 C 
ATOM      7  C   UNL     1       6.654  -0.379 -16.746  1.00  0.00     0.057 C 
ENDROOT
BRANCH   5   8
ATOM      8  C   UNL     1       6.357  -2.468 -20.047  1.00  0.00     0.009 C 
ATOM      9  C   UNL     1       5.675  -1.715 -21.191  1.00  0.00     0.012 C 
ATOM     10  C   UNL     1       7.440  -3.406 -20.587  1.00  0.00     0.012 C 
ENDBRANCH   5   8
TORSDOF 1
ENDMDL
MODEL 3
REMARK VINA RESULT:      -5.8      4.598      7.652
REMARK SMILES CC1=CCC(C(C)C)=CC1
REMARK SMILES IDX 1 1 2 2 3 3 4 4 5 5 9 6 10 7 6 8 7 9 8 10
REMARK H PARENT
ROOT
ATOM      1  C   UNL     1       6.120  -3.291 -19.626  1.00  0.00     0.039 C 
ATOM      2  C   UNL     1       5.617  -2.891 -20.981  1.00  0.00    -0.073 C 
ATOM      3  C   UNL     1       4.636  -3.564 -21.609  1.00  0.00    -0.023 C 
ATOM      4  C   UNL     1       4.101  -3.199 -22.967  1.00  0.00     0.058 C 
ATOM      5  C   UNL     1       4.764  -1.989 -23.595  1.00  0.00    -0.068 C 
ATOM      6  C   UNL     1       5.745  -1.321 -22.957  1.00  0.00    -0.023 C 
ATOM      7  C   UNL     1       6.277  -1.684 -21.599  1.00  0.00     0.057 C 
ENDROOT
BRANCH   5   8
ATOM      8  C   UNL     1       4.291  -1.548 -24.974  1.00  0.00     0.009 C 
ATOM      9  C   UNL     1       2.875  -0.968 -24.936  1.00  0.00     0.012 C 
ATOM     10  C   UNL     1       5.261  -0.561 -25.627  1.00  0.00     0.012 C 
ENDBRANCH   5   8
TORSDOF 1
ENDMDL
MODEL 4
REMARK VINA RESULT:      -5.7     14.091     16.139
REMARK SMILES CC1=CCC(C(C)C)=CC1
REMARK SMILES IDX 1 1 2 2 3 3 4 4 5 5 9 6 10 7 6 8 7 9 8 10
REMARK H PARENT
ROOT
ATOM      1  C   UNL     1      -3.077  -8.825 -28.219  1.00  0.00     0.039 C 
ATOM      2  C   UNL     1      -2.025  -9.625 -27.511  1.00  0.00    -0.073 C 
ATOM      3  C   UNL     1      -1.746 -10.898 -27.845  1.00  0.00    -0.023 C 
ATOM      4  C   UNL     1      -0.700 -11.737 -27.164  1.00  0.00     0.058 C 
ATOM      5  C   UNL     1       0.034 -11.031 -26.041  1.00  0.00    -0.068 C 
ATOM      6  C   UNL     1      -0.252  -9.755 -25.714  1.00  0.00    -0.023 C 
ATOM      7  C   UNL     1      -1.294  -8.915 -26.398  1.00  0.00     0.057 C 
ENDROOT
BRANCH   5   8
ATOM      8  C   UNL     1       1.108 -11.805 -25.288  1.00  0.00     0.009 C 
ATOM      9  C   UNL     1       1.691 -10.997 -24.127  1.00  0.00     0.012 C 
ATOM     10  C   UNL     1       0.602 -13.165 -24.800  1.00  0.00     0.012 C 
ENDBRANCH   5   8
TORSDOF 1
ENDMDL
MODEL 5
REMARK VINA RESULT:      -5.5     14.960     15.884
REMARK SMILES CC1=CCC(C(C)C)=CC1
REMARK SMILES IDX 1 1 2 2 3 3 4 4 5 5 9 6 10 7 6 8 7 9 8 10
REMARK H PARENT
ROOT
ATOM      1  C   UNL     1      -1.803  -0.143 -30.152  1.00  0.00     0.039 C 
ATOM      2  C   UNL     1      -2.681  -0.274 -28.943  1.00  0.00    -0.073 C 
ATOM      3  C   UNL     1      -2.727   0.669 -27.985  1.00  0.00    -0.023 C 
ATOM      4  C   UNL     1      -3.593   0.581 -26.758  1.00  0.00     0.058 C 
ATOM      5  C   UNL     1      -4.428  -0.681 -26.672  1.00  0.00    -0.068 C 
ATOM      6  C   UNL     1      -4.375  -1.620 -27.638  1.00  0.00    -0.023 C 
ATOM      7  C   UNL     1      -3.514  -1.530 -28.866  1.00  0.00     0.057 C 
ENDROOT
BRANCH   5   8
ATOM      8  C   UNL     1      -5.332  -0.861 -25.459  1.00  0.00     0.009 C 
ATOM      9  C   UNL     1      -4.996   0.128 -24.341  1.00  0.00     0.012 C 
ATOM     10  C   UNL     1      -6.815  -0.776 -25.829  1.00  0.00     0.012 C 
ENDBRANCH   5   8
TORSDOF 1
ENDMDL
MODEL 6
REMARK VINA RESULT:      -5.3     15.268     16.206
REMARK SMILES CC1=CCC(C(C)C)=CC1
REMARK SMILES IDX 1 1 2 2 3 3 4 4 5 5 9 6 10 7 6 8 7 9 8 10
REMARK H PARENT
ROOT
ATOM      1  C   UNL     1      -6.111  -0.934 -24.256  1.00  0.00     0.039 C 
ATOM      2  C   UNL     1      -5.274  -0.867 -25.499  1.00  0.00    -0.073 C 
ATOM      3  C   UNL     1      -4.492   0.191 -25.781  1.00  0.00    -0.023 C 
ATOM      4  C   UNL     1      -3.636   0.301 -27.013  1.00  0.00     0.058 C 
ATOM      5  C   UNL     1      -3.724  -0.894 -27.943  1.00  0.00    -0.068 C 
ATOM      6  C   UNL     1      -4.510  -1.949 -27.651  1.00  0.00    -0.023 C 
ATOM      7  C   UNL     1      -5.361  -2.060 -26.418  1.00  0.00     0.057 C 
ENDROOT
BRANCH   5   8
ATOM      8  C   UNL     1      -2.896  -0.869 -29.221  1.00  0.00     0.009 C 
ATOM      9  C   UNL     1      -3.775  -0.833 -30.473  1.00  0.00     0.012 C 
ATOM     10  C   UNL     1      -1.890   0.285 -29.233  1.00  0.00     0.012 C 
ENDBRANCH   5   8
TORSDOF 1
ENDMDL
MODEL 7
REMARK VINA RESULT:      -5.3     14.971     17.013
REMARK SMILES CC1=CCC(C(C)C)=CC1
REMARK SMILES IDX 1 1 2 2 3 3 4 4 5 5 9 6 10 7 6 8 7 9 8 10
REMARK H PARENT
ROOT
ATOM      1  C   UNL     1      -7.555  -2.941 -28.681  1.00  0.00     0.039 C 
ATOM      2  C   UNL     1      -6.229  -2.243 -28.738  1.00  0.00    -0.073 C 
ATOM      3  C   UNL     1      -5.657  -1.885 -29.903  1.00  0.00    -0.023 C 
ATOM      4  C   UNL     1      -4.330  -1.184 -30.008  1.00  0.00     0.058 C 
ATOM      5  C   UNL     1      -3.663  -0.905 -28.676  1.00  0.00    -0.068 C 
ATOM      6  C   UNL     1      -4.245  -1.267 -27.515  1.00  0.00    -0.023 C 
ATOM      7  C   UNL     1      -5.572  -1.964 -27.409  1.00  0.00     0.057 C 
ENDROOT
BRANCH   5   8
ATOM      8  C   UNL     1      -2.312  -0.203 -28.684  1.00  0.00     0.009 C 
ATOM      9  C   UNL     1      -1.849   0.134 -30.103  1.00  0.00     0.012 C 
ATOM     10  C   UNL     1      -2.308   1.048 -27.803  1.00  0.00     0.012 C 
ENDBRANCH   5   8
TORSDOF 1
ENDMDL
MODEL 8
REMARK VINA RESULT:      -5.3     18.255     21.029
REMARK SMILES CC1=CCC(C(C)C)=CC1
REMARK SMILES IDX 1 1 2 2 3 3 4 4 5 5 9 6 10 7 6 8 7 9 8 10
REMARK H PARENT
ROOT
ATOM      1  C   UNL     1     -10.135   0.099 -33.807  1.00  0.00     0.039 C 
ATOM      2  C   UNL     1      -8.861   0.091 -33.016  1.00  0.00    -0.073 C 
ATOM      3  C   UNL     1      -7.905   1.024 -33.186  1.00  0.00    -0.023 C 
ATOM      4  C   UNL     1      -6.614   1.055 -32.415  1.00  0.00     0.058 C 
ATOM      5  C   UNL     1      -6.458  -0.069 -31.411  1.00  0.00    -0.068 C 
ATOM      6  C   UNL     1      -7.422  -0.998 -31.247  1.00  0.00    -0.023 C 
ATOM      7  C   UNL     1      -8.714  -1.027 -32.014  1.00  0.00     0.057 C 
ENDROOT
BRANCH   5   8
ATOM      8  C   UNL     1      -5.178  -0.122 -30.587  1.00  0.00     0.009 C 
ATOM      9  C   UNL     1      -4.972  -1.491 -29.935  1.00  0.00     0.012 C 
ATOM     10  C   UNL     1      -3.949   0.276 -31.407  1.00  0.00     0.012 C 
ENDBRANCH   5   8
TORSDOF 1
ENDMDL
MODEL 9
REMARK VINA RESULT:      -5.2     15.759     18.776
REMARK SMILES CC1=CCC(C(C)C)=CC1
REMARK SMILES IDX 1 1 2 2 3 3 4 4 5 5 9 6 10 7 6 8 7 9 8 10
REMARK H PARENT
ROOT
ATOM      1  C   UNL     1      -7.490   1.374 -32.876  1.00  0.00     0.039 C 
ATOM      2  C   UNL     1      -6.426   0.759 -32.016  1.00  0.00    -0.073 C 
ATOM      3  C   UNL     1      -5.181   1.266 -31.944  1.00  0.00    -0.023 C 
ATOM      4  C   UNL     1      -4.084   0.683 -31.096  1.00  0.00     0.058 C 
ATOM      5  C   UNL     1      -4.489  -0.549 -30.311  1.00  0.00    -0.068 C 
ATOM      6  C   UNL     1      -5.739  -1.048 -30.389  1.00  0.00    -0.023 C 
ATOM      7  C   UNL     1      -6.836  -0.463 -31.234  1.00  0.00     0.057 C 
ENDROOT
BRANCH   5   8
ATOM      8  C   UNL     1      -3.440  -1.212 -29.428  1.00  0.00     0.009 C 
ATOM      9  C   UNL     1      -2.372  -0.220 -28.962  1.00  0.00     0.012 C 
ATOM     10  C   UNL     1      -4.067  -1.932 -28.231  1.00  0.00     0.012 C 
ENDBRANCH   5   8
TORSDOF 1
ENDMDL
MODEL 10
REMARK VINA RESULT:      -5.2     18.311     20.986
REMARK SMILES CC1=CCC(C(C)C)=CC1
REMARK SMILES IDX 1 1 2 2 3 3 4 4 5 5 9 6 10 7 6 8 7 9 8 10
REMARK H PARENT
ROOT
ATOM      1  C   UNL     1     -10.156   0.127 -33.777  1.00  0.00     0.039 C 
ATOM      2  C   UNL     1      -8.926  -0.014 -32.930  1.00  0.00    -0.073 C 
ATOM      3  C   UNL     1      -8.788  -1.000 -32.025  1.00  0.00    -0.023 C 
ATOM      4  C   UNL     1      -7.573  -1.181 -31.156  1.00  0.00     0.058 C 
ATOM      5  C   UNL     1      -6.489  -0.143 -31.374  1.00  0.00    -0.068 C 
ATOM      6  C   UNL     1      -6.637   0.840 -32.284  1.00  0.00    -0.023 C 
ATOM      7  C   UNL     1      -7.849   1.018 -33.155  1.00  0.00     0.057 C 
ENDROOT
BRANCH   5   8
ATOM      8  C   UNL     1      -5.224  -0.242 -30.533  1.00  0.00     0.009 C 
ATOM      9  C   UNL     1      -5.038  -1.640 -29.938  1.00  0.00     0.012 C 
ATOM     10  C   UNL     1      -3.978   0.182 -31.314  1.00  0.00     0.012 C 
ENDBRANCH   5   8
TORSDOF 1
ENDMDL
