MODEL 1
REMARK VINA RESULT:      -6.4      0.000      0.000
REMARK SMILES COc1cc(/C=C/C(=O)O)ccc1O
REMARK SMILES IDX 6 1 7 2 5 3 3 4 13 5 4 6 12 7 11 8 2 9 1 10 14 11 8 13 9 14
REMARK SMILES IDX 10 15
REMARK H PARENT 14 12 10 16
ROOT
ATOM      1  C   UNL     1      -8.519   1.211 -31.712  1.00  0.00     0.016 C 
ATOM      2  C   UNL     1      -8.857   0.903 -32.973  1.00  0.00     0.094 C 
ENDROOT
BRANCH   1   3
ATOM      3  C   UNL     1      -7.131   1.314 -31.246  1.00  0.00    -0.021 A 
ATOM      4  C   UNL     1      -4.955   0.261 -30.974  1.00  0.00     0.161 A 
ATOM      5  C   UNL     1      -4.474   1.455 -30.430  1.00  0.00     0.157 A 
ATOM      6  C   UNL     1      -6.287   0.198 -31.388  1.00  0.00     0.058 A 
ATOM      7  C   UNL     1      -5.286   2.574 -30.298  1.00  0.00     0.051 A 
ATOM      8  C   UNL     1      -6.615   2.504 -30.712  1.00  0.00     0.012 A 
BRANCH   4   9
ATOM      9  O   UNL     1      -4.035  -0.754 -31.046  1.00  0.00    -0.493 OA
ATOM     10  C   UNL     1      -4.053  -1.707 -29.990  1.00  0.00     0.278 C 
ENDBRANCH   4   9
BRANCH   5  11
ATOM     11  O   UNL     1      -3.174   1.551 -30.016  1.00  0.00    -0.504 OA
ATOM     12  H   UNL     1      -2.958   2.501 -30.082  1.00  0.00     0.293 HD
ENDBRANCH   5  11
ENDBRANCH   1   3
BRANCH   2  13
ATOM     13  C   UNL     1     -10.285   0.851 -33.345  1.00  0.00     0.328 C 
ATOM     14  O   UNL     1     -10.829  -0.103 -33.873  1.00  0.00    -0.247 OA
BRANCH  13  15
ATOM     15  O   UNL     1     -10.933   1.989 -33.027  1.00  0.00    -0.478 OA
ATOM     16  H   UNL     1     -11.638   2.259 -33.642  1.00  0.00     0.297 HD
ENDBRANCH  13  15
ENDBRANCH   2  13
TORSDOF 5
ENDMDL
MODEL 2
REMARK VINA RESULT:      -6.2      0.967      2.495
REMARK SMILES COc1cc(/C=C/C(=O)O)ccc1O
REMARK SMILES IDX 6 1 7 2 5 3 3 4 13 5 4 6 12 7 11 8 2 9 1 10 14 11 8 13 9 14
REMARK SMILES IDX 10 15
REMARK H PARENT 14 12 10 16
ROOT
ATOM      1  C   UNL     1      -8.524   1.464 -31.756  1.00  0.00     0.016 C 
ATOM      2  C   UNL     1      -9.118   0.581 -32.575  1.00  0.00     0.094 C 
ENDROOT
BRANCH   1   3
ATOM      3  C   UNL     1      -7.111   1.385 -31.365  1.00  0.00    -0.021 A 
ATOM      4  C   UNL     1      -5.184   2.458 -30.339  1.00  0.00     0.161 A 
ATOM      5  C   UNL     1      -4.451   1.287 -30.554  1.00  0.00     0.157 A 
ATOM      6  C   UNL     1      -6.520   2.499 -30.743  1.00  0.00     0.058 A 
ATOM      7  C   UNL     1      -5.022   0.170 -31.151  1.00  0.00     0.051 A 
ATOM      8  C   UNL     1      -6.356   0.219 -31.551  1.00  0.00     0.012 A 
BRANCH   4   9
ATOM      9  O   UNL     1      -4.487   3.474 -29.735  1.00  0.00    -0.493 OA
ATOM     10  C   UNL     1      -4.531   4.745 -30.373  1.00  0.00     0.278 C 
ENDBRANCH   4   9
BRANCH   5  11
ATOM     11  O   UNL     1      -3.140   1.213 -30.169  1.00  0.00    -0.504 OA
ATOM     12  H   UNL     1      -3.146   1.428 -29.216  1.00  0.00     0.293 HD
ENDBRANCH   5  11
ENDBRANCH   1   3
BRANCH   2  13
ATOM     13  C   UNL     1     -10.540   0.767 -32.925  1.00  0.00     0.328 C 
ATOM     14  O   UNL     1     -11.337  -0.140 -33.086  1.00  0.00    -0.247 OA
BRANCH  13  15
ATOM     15  O   UNL     1     -10.867   2.069 -33.046  1.00  0.00    -0.478 OA
ATOM     16  H   UNL     1     -10.706   2.465 -33.920  1.00  0.00     0.297 HD
ENDBRANCH  13  15
ENDBRANCH   2  13
TORSDOF 5
ENDMDL
MODEL 3
REMARK VINA RESULT:      -6.1      3.773      6.412
REMARK SMILES COc1cc(/C=C/C(=O)O)ccc1O
REMARK SMILES IDX 6 1 7 2 5 3 3 4 13 5 4 6 12 7 11 8 2 9 1 10 14 11 8 13 9 14
REMARK SMILES IDX 10 15
REMARK H PARENT 14 12 10 16
ROOT
ATOM      1  C   UNL     1      -4.100   0.081 -26.446  1.00  0.00     0.016 C 
ATOM      2  C   UNL     1      -5.096  -0.587 -25.845  1.00  0.00     0.094 C 
ENDROOT
BRANCH   1   3
ATOM      3  C   UNL     1      -3.752  -0.083 -27.863  1.00  0.00    -0.021 A 
ATOM      4  C   UNL     1      -4.483  -0.577 -30.130  1.00  0.00     0.161 A 
ATOM      5  C   UNL     1      -3.174  -0.361 -30.571  1.00  0.00     0.157 A 
ATOM      6  C   UNL     1      -4.768  -0.429 -28.771  1.00  0.00     0.058 A 
ATOM      7  C   UNL     1      -2.160  -0.001 -29.692  1.00  0.00     0.051 A 
ATOM      8  C   UNL     1      -2.452   0.144 -28.337  1.00  0.00     0.012 A 
BRANCH   4   9
ATOM      9  O   UNL     1      -5.375  -0.922 -31.113  1.00  0.00    -0.493 OA
ATOM     10  C   UNL     1      -6.538  -0.111 -31.232  1.00  0.00     0.278 C 
ENDBRANCH   4   9
BRANCH   5  11
ATOM     11  O   UNL     1      -2.861  -0.497 -31.895  1.00  0.00    -0.504 OA
ATOM     12  H   UNL     1      -3.718  -0.634 -32.343  1.00  0.00     0.293 HD
ENDBRANCH   5  11
ENDBRANCH   1   3
BRANCH   2  13
ATOM     13  C   UNL     1      -5.380  -0.329 -24.419  1.00  0.00     0.328 C 
ATOM     14  O   UNL     1      -6.148  -0.983 -23.736  1.00  0.00    -0.247 OA
BRANCH  13  15
ATOM     15  O   UNL     1      -4.683   0.724 -23.946  1.00  0.00    -0.478 OA
ATOM     16  H   UNL     1      -4.784   0.904 -22.995  1.00  0.00     0.297 HD
ENDBRANCH  13  15
ENDBRANCH   2  13
TORSDOF 5
ENDMDL
MODEL 4
REMARK VINA RESULT:      -6.1     17.564     20.605
REMARK SMILES COc1cc(/C=C/C(=O)O)ccc1O
REMARK SMILES IDX 6 1 7 2 5 3 3 4 13 5 4 6 12 7 11 8 2 9 1 10 14 11 8 13 9 14
REMARK SMILES IDX 10 15
REMARK H PARENT 14 12 10 16
ROOT
ATOM      1  C   UNL     1       7.733  -1.318 -19.096  1.00  0.00     0.016 C 
ATOM      2  C   UNL     1       6.475  -1.495 -19.530  1.00  0.00     0.094 C 
ENDROOT
BRANCH   1   3
ATOM      3  C   UNL     1       8.082  -0.485 -17.939  1.00  0.00    -0.021 A 
ATOM      4  C   UNL     1       9.631  -0.004 -16.126  1.00  0.00     0.161 A 
ATOM      5  C   UNL     1       8.830   1.083 -15.765  1.00  0.00     0.157 A 
ATOM      6  C   UNL     1       9.254  -0.784 -17.222  1.00  0.00     0.058 A 
ATOM      7  C   UNL     1       7.678   1.405 -16.472  1.00  0.00     0.051 A 
ATOM      8  C   UNL     1       7.308   0.622 -17.564  1.00  0.00     0.012 A 
BRANCH   4   9
ATOM      9  O   UNL     1      10.739  -0.194 -15.339  1.00  0.00    -0.493 OA
ATOM     10  C   UNL     1      11.958   0.374 -15.805  1.00  0.00     0.278 C 
ENDBRANCH   4   9
BRANCH   5  11
ATOM     11  O   UNL     1       9.172   1.867 -14.698  1.00  0.00    -0.504 OA
ATOM     12  H   UNL     1       8.732   1.453 -13.930  1.00  0.00     0.293 HD
ENDBRANCH   5  11
ENDBRANCH   1   3
BRANCH   2  13
ATOM     13  C   UNL     1       6.230  -2.376 -20.690  1.00  0.00     0.328 C 
ATOM     14  O   UNL     1       5.592  -2.058 -21.678  1.00  0.00    -0.247 OA
BRANCH  13  15
ATOM     15  O   UNL     1       6.800  -3.587 -20.536  1.00  0.00    -0.478 OA
ATOM     16  H   UNL     1       7.552  -3.778 -21.125  1.00  0.00     0.297 HD
ENDBRANCH  13  15
ENDBRANCH   2  13
TORSDOF 5
ENDMDL
MODEL 5
REMARK VINA RESULT:      -6.0      1.491      2.620
REMARK SMILES COc1cc(/C=C/C(=O)O)ccc1O
REMARK SMILES IDX 6 1 7 2 5 3 3 4 13 5 4 6 12 7 11 8 2 9 1 10 14 11 8 13 9 14
REMARK SMILES IDX 10 15
REMARK H PARENT 14 12 10 16
ROOT
ATOM      1  C   UNL     1      -8.711  -0.724 -32.131  1.00  0.00     0.016 C 
ATOM      2  C   UNL     1      -9.217   0.511 -32.269  1.00  0.00     0.094 C 
ENDROOT
BRANCH   1   3
ATOM      3  C   UNL     1      -7.536  -1.031 -31.305  1.00  0.00    -0.021 A 
ATOM      4  C   UNL     1      -5.304  -0.407 -30.568  1.00  0.00     0.161 A 
ATOM      5  C   UNL     1      -5.297  -1.525 -29.728  1.00  0.00     0.157 A 
ATOM      6  C   UNL     1      -6.433  -0.161 -31.352  1.00  0.00     0.058 A 
ATOM      7  C   UNL     1      -6.384  -2.387 -29.655  1.00  0.00     0.051 A 
ATOM      8  C   UNL     1      -7.507  -2.135 -30.441  1.00  0.00     0.012 A 
BRANCH   4   9
ATOM      9  O   UNL     1      -4.162   0.352 -30.529  1.00  0.00    -0.493 OA
ATOM     10  C   UNL     1      -4.261   1.621 -29.893  1.00  0.00     0.278 C 
ENDBRANCH   4   9
BRANCH   5  11
ATOM     11  O   UNL     1      -4.207  -1.795 -28.947  1.00  0.00    -0.504 OA
ATOM     12  H   UNL     1      -4.540  -1.756 -28.029  1.00  0.00     0.293 HD
ENDBRANCH   5  11
ENDBRANCH   1   3
BRANCH   2  13
ATOM     13  C   UNL     1     -10.419   0.708 -33.104  1.00  0.00     0.328 C 
ATOM     14  O   UNL     1     -10.921  -0.150 -33.808  1.00  0.00    -0.247 OA
BRANCH  13  15
ATOM     15  O   UNL     1     -10.910   1.958 -32.998  1.00  0.00    -0.478 OA
ATOM     16  H   UNL     1     -10.251   2.661 -32.862  1.00  0.00     0.297 HD
ENDBRANCH  13  15
ENDBRANCH   2  13
TORSDOF 5
ENDMDL
MODEL 6
REMARK VINA RESULT:      -6.0      1.596      5.897
REMARK SMILES COc1cc(/C=C/C(=O)O)ccc1O
REMARK SMILES IDX 6 1 7 2 5 3 3 4 13 5 4 6 12 7 11 8 2 9 1 10 14 11 8 13 9 14
REMARK SMILES IDX 10 15
REMARK H PARENT 14 12 10 16
ROOT
ATOM      1  C   UNL     1      -6.002   1.039 -31.820  1.00  0.00     0.016 C 
ATOM      2  C   UNL     1      -5.190   0.135 -31.249  1.00  0.00     0.094 C 
ENDROOT
BRANCH   1   3
ATOM      3  C   UNL     1      -7.394   0.759 -32.191  1.00  0.00    -0.021 A 
ATOM      4  C   UNL     1      -9.670   0.277 -31.478  1.00  0.00     0.161 A 
ATOM      5  C   UNL     1     -10.061   0.271 -32.821  1.00  0.00     0.157 A 
ATOM      6  C   UNL     1      -8.331   0.529 -31.168  1.00  0.00     0.058 A 
ATOM      7  C   UNL     1      -9.154   0.514 -33.844  1.00  0.00     0.051 A 
ATOM      8  C   UNL     1      -7.819   0.764 -33.527  1.00  0.00     0.012 A 
BRANCH   4   9
ATOM      9  O   UNL     1     -10.677   0.027 -30.582  1.00  0.00    -0.493 OA
ATOM     10  C   UNL     1     -10.295  -0.549 -29.338  1.00  0.00     0.278 C 
ENDBRANCH   4   9
BRANCH   5  11
ATOM     11  O   UNL     1     -11.364   0.029 -33.158  1.00  0.00    -0.504 OA
ATOM     12  H   UNL     1     -11.885   0.639 -32.602  1.00  0.00     0.293 HD
ENDBRANCH   5  11
ENDBRANCH   1   3
BRANCH   2  13
ATOM     13  C   UNL     1      -3.812   0.528 -30.892  1.00  0.00     0.328 C 
ATOM     14  O   UNL     1      -3.496   1.072 -29.849  1.00  0.00    -0.247 OA
BRANCH  13  15
ATOM     15  O   UNL     1      -2.928   0.210 -31.858  1.00  0.00    -0.478 OA
ATOM     16  H   UNL     1      -2.586  -0.700 -31.835  1.00  0.00     0.297 HD
ENDBRANCH  13  15
ENDBRANCH   2  13
TORSDOF 5
ENDMDL
MODEL 7
REMARK VINA RESULT:      -6.0      4.653      5.572
REMARK SMILES COc1cc(/C=C/C(=O)O)ccc1O
REMARK SMILES IDX 6 1 7 2 5 3 3 4 13 5 4 6 12 7 11 8 2 9 1 10 14 11 8 13 9 14
REMARK SMILES IDX 10 15
REMARK H PARENT 14 12 10 16
ROOT
ATOM      1  C   UNL     1      -9.716  -3.782 -30.343  1.00  0.00     0.016 C 
ATOM      2  C   UNL     1      -9.656  -4.895 -29.595  1.00  0.00     0.094 C 
ENDROOT
BRANCH   1   3
ATOM      3  C   UNL     1      -8.599  -2.840 -30.485  1.00  0.00    -0.021 A 
ATOM      4  C   UNL     1      -7.704  -0.833 -31.527  1.00  0.00     0.161 A 
ATOM      5  C   UNL     1      -6.541  -0.988 -30.767  1.00  0.00     0.157 A 
ATOM      6  C   UNL     1      -8.736  -1.761 -31.376  1.00  0.00     0.058 A 
ATOM      7  C   UNL     1      -6.394  -2.036 -29.867  1.00  0.00     0.051 A 
ATOM      8  C   UNL     1      -7.428  -2.960 -29.723  1.00  0.00     0.012 A 
BRANCH   4   9
ATOM      9  O   UNL     1      -7.705   0.252 -32.367  1.00  0.00    -0.493 OA
ATOM     10  C   UNL     1      -8.646   0.232 -33.434  1.00  0.00     0.278 C 
ENDBRANCH   4   9
BRANCH   5  11
ATOM     11  O   UNL     1      -5.512  -0.095 -30.889  1.00  0.00    -0.504 OA
ATOM     12  H   UNL     1      -4.727  -0.642 -31.089  1.00  0.00     0.293 HD
ENDBRANCH   5  11
ENDBRANCH   1   3
BRANCH   2  13
ATOM     13  C   UNL     1     -10.830  -5.790 -29.540  1.00  0.00     0.328 C 
ATOM     14  O   UNL     1     -11.316  -6.232 -28.514  1.00  0.00    -0.247 OA
BRANCH  13  15
ATOM     15  O   UNL     1     -11.314  -6.066 -30.767  1.00  0.00    -0.478 OA
ATOM     16  H   UNL     1     -10.668  -6.407 -31.409  1.00  0.00     0.297 HD
ENDBRANCH  13  15
ENDBRANCH   2  13
TORSDOF 5
ENDMDL
MODEL 8
REMARK VINA RESULT:      -5.9     11.605     13.012
REMARK SMILES COc1cc(/C=C/C(=O)O)ccc1O
REMARK SMILES IDX 6 1 7 2 5 3 3 4 13 5 4 6 12 7 11 8 2 9 1 10 14 11 8 13 9 14
REMARK SMILES IDX 10 15
REMARK H PARENT 14 12 10 16
ROOT
ATOM      1  C   UNL     1      -4.535 -10.822 -27.394  1.00  0.00     0.016 C 
ATOM      2  C   UNL     1      -5.182 -11.210 -26.284  1.00  0.00     0.094 C 
ENDROOT
BRANCH   1   3
ATOM      3  C   UNL     1      -3.209 -10.193 -27.382  1.00  0.00    -0.021 A 
ATOM      4  C   UNL     1      -0.795 -10.453 -27.224  1.00  0.00     0.161 A 
ATOM      5  C   UNL     1      -0.661  -9.073 -27.399  1.00  0.00     0.157 A 
ATOM      6  C   UNL     1      -2.076 -11.010 -27.223  1.00  0.00     0.058 A 
ATOM      7  C   UNL     1      -1.767  -8.250 -27.575  1.00  0.00     0.051 A 
ATOM      8  C   UNL     1      -3.042  -8.814 -27.572  1.00  0.00     0.012 A 
BRANCH   4   9
ATOM      9  O   UNL     1       0.385 -11.134 -27.068  1.00  0.00    -0.493 OA
ATOM     10  C   UNL     1       0.584 -11.789 -25.820  1.00  0.00     0.278 C 
ENDBRANCH   4   9
BRANCH   5  11
ATOM     11  O   UNL     1       0.579  -8.495 -27.406  1.00  0.00    -0.504 OA
ATOM     12  H   UNL     1       1.086  -8.980 -26.726  1.00  0.00     0.293 HD
ENDBRANCH   5  11
ENDBRANCH   1   3
BRANCH   2  13
ATOM     13  C   UNL     1      -6.503 -11.858 -26.409  1.00  0.00     0.328 C 
ATOM     14  O   UNL     1      -6.888 -12.785 -25.720  1.00  0.00    -0.247 OA
BRANCH  13  15
ATOM     15  O   UNL     1      -7.251 -11.300 -27.382  1.00  0.00    -0.478 OA
ATOM     16  H   UNL     1      -6.755 -10.888 -28.112  1.00  0.00     0.297 HD
ENDBRANCH  13  15
ENDBRANCH   2  13
TORSDOF 5
ENDMDL
MODEL 9
REMARK VINA RESULT:      -5.8      5.771      6.745
REMARK SMILES COc1cc(/C=C/C(=O)O)ccc1O
REMARK SMILES IDX 6 1 7 2 5 3 3 4 13 5 4 6 12 7 11 8 2 9 1 10 14 11 8 13 9 14
REMARK SMILES IDX 10 15
REMARK H PARENT 14 12 10 16
ROOT
ATOM      1  C   UNL     1      -5.497  -1.300 -26.007  1.00  0.00     0.016 C 
ATOM      2  C   UNL     1      -5.835  -0.491 -24.991  1.00  0.00     0.094 C 
ENDROOT
BRANCH   1   3
ATOM      3  C   UNL     1      -4.529  -0.934 -27.049  1.00  0.00    -0.021 A 
ATOM      4  C   UNL     1      -2.945   0.692 -27.923  1.00  0.00     0.161 A 
ATOM      5  C   UNL     1      -2.647  -0.196 -28.961  1.00  0.00     0.157 A 
ATOM      6  C   UNL     1      -3.886   0.313 -26.963  1.00  0.00     0.058 A 
ATOM      7  C   UNL     1      -3.258  -1.440 -29.053  1.00  0.00     0.051 A 
ATOM      8  C   UNL     1      -4.197  -1.811 -28.091  1.00  0.00     0.012 A 
BRANCH   4   9
ATOM      9  O   UNL     1      -2.258   1.879 -27.962  1.00  0.00    -0.493 OA
ATOM     10  C   UNL     1      -3.032   3.058 -28.149  1.00  0.00     0.278 C 
ENDBRANCH   4   9
BRANCH   5  11
ATOM     11  O   UNL     1      -1.730   0.144 -29.917  1.00  0.00    -0.504 OA
ATOM     12  H   UNL     1      -1.918  -0.451 -30.669  1.00  0.00     0.293 HD
ENDBRANCH   5  11
ENDBRANCH   1   3
BRANCH   2  13
ATOM     13  C   UNL     1      -6.801  -0.967 -23.981  1.00  0.00     0.328 C 
ATOM     14  O   UNL     1      -6.870  -2.114 -23.575  1.00  0.00    -0.247 OA
BRANCH  13  15
ATOM     15  O   UNL     1      -7.609   0.020 -23.548  1.00  0.00    -0.478 OA
ATOM     16  H   UNL     1      -7.938   0.629 -24.232  1.00  0.00     0.297 HD
ENDBRANCH  13  15
ENDBRANCH   2  13
TORSDOF 5
ENDMDL
MODEL 10
REMARK VINA RESULT:      -5.8      2.173      5.835
REMARK SMILES COc1cc(/C=C/C(=O)O)ccc1O
REMARK SMILES IDX 6 1 7 2 5 3 3 4 13 5 4 6 12 7 11 8 2 9 1 10 14 11 8 13 9 14
REMARK SMILES IDX 10 15
REMARK H PARENT 14 12 10 16
ROOT
ATOM      1  C   UNL     1      -6.236   1.988 -31.472  1.00  0.00     0.016 C 
ATOM      2  C   UNL     1      -6.154   2.590 -30.276  1.00  0.00     0.094 C 
ENDROOT
BRANCH   1   3
ATOM      3  C   UNL     1      -7.479   1.424 -32.013  1.00  0.00    -0.021 A 
ATOM      4  C   UNL     1      -9.743   0.633 -31.605  1.00  0.00     0.161 A 
ATOM      5  C   UNL     1      -9.881   0.401 -32.977  1.00  0.00     0.157 A 
ATOM      6  C   UNL     1      -8.537   1.153 -31.128  1.00  0.00     0.058 A 
ATOM      7  C   UNL     1      -8.854   0.680 -33.869  1.00  0.00     0.051 A 
ATOM      8  C   UNL     1      -7.653   1.197 -33.386  1.00  0.00     0.012 A 
BRANCH   4   9
ATOM      9  O   UNL     1     -10.844   0.315 -30.851  1.00  0.00    -0.493 OA
ATOM     10  C   UNL     1     -10.613  -0.461 -29.681  1.00  0.00     0.278 C 
ENDBRANCH   4   9
BRANCH   5  11
ATOM     11  O   UNL     1     -11.049  -0.106 -33.476  1.00  0.00    -0.504 OA
ATOM     12  H   UNL     1     -11.311  -0.803 -32.844  1.00  0.00     0.293 HD
ENDBRANCH   5  11
ENDBRANCH   1   3
BRANCH   2  13
ATOM     13  C   UNL     1      -4.859   3.147 -29.837  1.00  0.00     0.328 C 
ATOM     14  O   UNL     1      -4.447   3.121 -28.690  1.00  0.00    -0.247 OA
BRANCH  13  15
ATOM     15  O   UNL     1      -4.169   3.693 -30.858  1.00  0.00    -0.478 OA
ATOM     16  H   UNL     1      -3.972   4.642 -30.774  1.00  0.00     0.297 HD
ENDBRANCH  13  15
ENDBRANCH   2  13
TORSDOF 5
ENDMDL
