MODEL 1
REMARK VINA RESULT:      -6.2      0.000      0.000
REMARK SMILES C=C(C)[C@@H]1CC=C(C)CC1
REMARK SMILES IDX 8 1 7 2 6 3 5 4 4 5 10 6 9 7 2 8 1 9 3 10
REMARK H PARENT
ROOT
ATOM      1  C   UNL     1       8.570   0.415 -15.553  1.00  0.00     0.039 C 
ATOM      2  C   UNL     1       8.029  -0.273 -16.773  1.00  0.00    -0.077 C 
ATOM      3  C   UNL     1       8.740  -0.379 -17.909  1.00  0.00    -0.027 C 
ATOM      4  C   UNL     1       8.219  -1.020 -19.165  1.00  0.00     0.035 C 
ATOM      5  C   UNL     1       6.695  -1.271 -19.151  1.00  0.00     0.018 C 
ATOM      6  C   UNL     1       6.281  -1.822 -17.774  1.00  0.00     0.013 C 
ATOM      7  C   UNL     1       6.638  -0.842 -16.652  1.00  0.00     0.031 C 
ENDROOT
BRANCH   5   8
ATOM      8  C   UNL     1       6.267  -2.120 -20.351  1.00  0.00    -0.077 C 
ATOM      9  C   UNL     1       5.654  -1.641 -21.448  1.00  0.00     0.008 C 
ATOM     10  C   UNL     1       6.604  -3.588 -20.258  1.00  0.00     0.039 C 
ENDBRANCH   5   8
TORSDOF 1
ENDMDL
MODEL 2
REMARK VINA RESULT:      -5.5      1.000      4.424
REMARK SMILES C=C(C)[C@@H]1CC=C(C)CC1
REMARK SMILES IDX 8 1 7 2 6 3 5 4 4 5 10 6 9 7 2 8 1 9 3 10
REMARK H PARENT
ROOT
ATOM      1  C   UNL     1       5.870  -3.195 -20.679  1.00  0.00     0.039 C 
ATOM      2  C   UNL     1       6.447  -2.331 -19.596  1.00  0.00    -0.077 C 
ATOM      3  C   UNL     1       7.227  -1.270 -19.867  1.00  0.00    -0.027 C 
ATOM      4  C   UNL     1       7.860  -0.406 -18.811  1.00  0.00     0.035 C 
ATOM      5  C   UNL     1       7.802  -1.012 -17.392  1.00  0.00     0.018 C 
ATOM      6  C   UNL     1       6.410  -1.626 -17.155  1.00  0.00     0.013 C 
ATOM      7  C   UNL     1       6.101  -2.721 -18.181  1.00  0.00     0.031 C 
ENDROOT
BRANCH   5   8
ATOM      8  C   UNL     1       8.257   0.003 -16.342  1.00  0.00    -0.077 C 
ATOM      9  C   UNL     1       9.048  -0.282 -15.292  1.00  0.00     0.008 C 
ATOM     10  C   UNL     1       7.779   1.418 -16.560  1.00  0.00     0.039 C 
ENDBRANCH   5   8
TORSDOF 1
ENDMDL
MODEL 3
REMARK VINA RESULT:      -5.5     12.886     15.010
REMARK SMILES C=C(C)[C@@H]1CC=C(C)CC1
REMARK SMILES IDX 8 1 7 2 6 3 5 4 4 5 10 6 9 7 2 8 1 9 3 10
REMARK H PARENT
ROOT
ATOM      1  C   UNL     1      -3.066  -8.822 -28.458  1.00  0.00     0.039 C 
ATOM      2  C   UNL     1      -2.027  -9.560 -27.665  1.00  0.00    -0.077 C 
ATOM      3  C   UNL     1      -1.775 -10.866 -27.857  1.00  0.00    -0.027 C 
ATOM      4  C   UNL     1      -0.775 -11.651 -27.054  1.00  0.00     0.035 C 
ATOM      5  C   UNL     1      -0.281 -10.921 -25.786  1.00  0.00     0.018 C 
ATOM      6  C   UNL     1      -0.013  -9.442 -26.120  1.00  0.00     0.013 C 
ATOM      7  C   UNL     1      -1.278  -8.749 -26.638  1.00  0.00     0.031 C 
ENDROOT
BRANCH   5   8
ATOM      8  C   UNL     1       0.888 -11.668 -25.141  1.00  0.00    -0.077 C 
ATOM      9  C   UNL     1       1.675 -11.168 -24.172  1.00  0.00     0.008 C 
ATOM     10  C   UNL     1       1.114 -13.073 -25.644  1.00  0.00     0.039 C 
ENDBRANCH   5   8
TORSDOF 1
ENDMDL
MODEL 4
REMARK VINA RESULT:      -5.4      0.872      4.690
REMARK SMILES C=C(C)[C@@H]1CC=C(C)CC1
REMARK SMILES IDX 8 1 7 2 6 3 5 4 4 5 10 6 9 7 2 8 1 9 3 10
REMARK H PARENT
ROOT
ATOM      1  C   UNL     1       5.981  -1.747 -20.478  1.00  0.00     0.039 C 
ATOM      2  C   UNL     1       6.730  -1.430 -19.216  1.00  0.00    -0.077 C 
ATOM      3  C   UNL     1       6.233  -1.714 -17.999  1.00  0.00    -0.027 C 
ATOM      4  C   UNL     1       6.931  -1.374 -16.712  1.00  0.00     0.035 C 
ATOM      5  C   UNL     1       8.115  -0.397 -16.883  1.00  0.00     0.018 C 
ATOM      6  C   UNL     1       8.935  -0.800 -18.122  1.00  0.00     0.013 C 
ATOM      7  C   UNL     1       8.076  -0.775 -19.391  1.00  0.00     0.031 C 
ENDROOT
BRANCH   5   8
ATOM      8  C   UNL     1       8.913  -0.268 -15.584  1.00  0.00    -0.077 C 
ATOM      9  C   UNL     1       9.162   0.892 -14.949  1.00  0.00     0.008 C 
ATOM     10  C   UNL     1       9.412  -1.566 -14.999  1.00  0.00     0.039 C 
ENDBRANCH   5   8
TORSDOF 1
ENDMDL
MODEL 5
REMARK VINA RESULT:      -5.3     13.274     14.899
REMARK SMILES C=C(C)[C@@H]1CC=C(C)CC1
REMARK SMILES IDX 8 1 7 2 6 3 5 4 4 5 10 6 9 7 2 8 1 9 3 10
REMARK H PARENT
ROOT
ATOM      1  C   UNL     1      -3.423  -1.564 -30.041  1.00  0.00     0.039 C 
ATOM      2  C   UNL     1      -3.875  -1.282 -28.638  1.00  0.00    -0.077 C 
ATOM      3  C   UNL     1      -4.554  -2.185 -27.909  1.00  0.00    -0.027 C 
ATOM      4  C   UNL     1      -5.061  -1.926 -26.518  1.00  0.00     0.035 C 
ATOM      5  C   UNL     1      -5.016  -0.439 -26.104  1.00  0.00     0.018 C 
ATOM      6  C   UNL     1      -3.683   0.179 -26.567  1.00  0.00     0.013 C 
ATOM      7  C   UNL     1      -3.521   0.076 -28.087  1.00  0.00     0.031 C 
ENDROOT
BRANCH   5   8
ATOM      8  C   UNL     1      -5.331  -0.273 -24.616  1.00  0.00    -0.077 C 
ATOM      9  C   UNL     1      -4.654   0.528 -23.774  1.00  0.00     0.008 C 
ATOM     10  C   UNL     1      -6.512  -1.065 -24.112  1.00  0.00     0.039 C 
ENDBRANCH   5   8
TORSDOF 1
ENDMDL
MODEL 6
REMARK VINA RESULT:      -5.2     13.962     14.729
REMARK SMILES C=C(C)[C@@H]1CC=C(C)CC1
REMARK SMILES IDX 8 1 7 2 6 3 5 4 4 5 10 6 9 7 2 8 1 9 3 10
REMARK H PARENT
ROOT
ATOM      1  C   UNL     1      -5.949  -1.117 -24.586  1.00  0.00     0.039 C 
ATOM      2  C   UNL     1      -5.146  -0.925 -25.840  1.00  0.00    -0.077 C 
ATOM      3  C   UNL     1      -4.312   0.117 -26.002  1.00  0.00    -0.027 C 
ATOM      4  C   UNL     1      -3.524   0.368 -27.258  1.00  0.00     0.035 C 
ATOM      5  C   UNL     1      -3.979  -0.485 -28.462  1.00  0.00     0.018 C 
ATOM      6  C   UNL     1      -4.245  -1.928 -27.994  1.00  0.00     0.013 C 
ATOM      7  C   UNL     1      -5.327  -1.971 -26.911  1.00  0.00     0.031 C 
ENDROOT
BRANCH   5   8
ATOM      8  C   UNL     1      -3.004  -0.347 -29.634  1.00  0.00    -0.077 C 
ATOM      9  C   UNL     1      -3.241  -0.784 -30.883  1.00  0.00     0.008 C 
ATOM     10  C   UNL     1      -1.711   0.363 -29.319  1.00  0.00     0.039 C 
ENDBRANCH   5   8
TORSDOF 1
ENDMDL
MODEL 7
REMARK VINA RESULT:      -5.2     13.552     15.976
REMARK SMILES C=C(C)[C@@H]1CC=C(C)CC1
REMARK SMILES IDX 8 1 7 2 6 3 5 4 4 5 10 6 9 7 2 8 1 9 3 10
REMARK H PARENT
ROOT
ATOM      1  C   UNL     1      -7.418  -3.048 -28.926  1.00  0.00     0.039 C 
ATOM      2  C   UNL     1      -6.165  -2.221 -28.934  1.00  0.00    -0.077 C 
ATOM      3  C   UNL     1      -5.786  -1.507 -30.008  1.00  0.00    -0.027 C 
ATOM      4  C   UNL     1      -4.518  -0.702 -30.072  1.00  0.00     0.035 C 
ATOM      5  C   UNL     1      -3.528  -1.004 -28.925  1.00  0.00     0.018 C 
ATOM      6  C   UNL     1      -4.303  -1.120 -27.600  1.00  0.00     0.013 C 
ATOM      7  C   UNL     1      -5.353  -2.235 -27.664  1.00  0.00     0.031 C 
ENDROOT
BRANCH   5   8
ATOM      8  C   UNL     1      -2.370  -0.004 -28.921  1.00  0.00    -0.077 C 
ATOM      9  C   UNL     1      -2.079   0.825 -27.903  1.00  0.00     0.008 C 
ATOM     10  C   UNL     1      -1.507  -0.007 -30.158  1.00  0.00     0.039 C 
ENDBRANCH   5   8
TORSDOF 1
ENDMDL
MODEL 8
REMARK VINA RESULT:      -5.2     13.722     14.662
REMARK SMILES C=C(C)[C@@H]1CC=C(C)CC1
REMARK SMILES IDX 8 1 7 2 6 3 5 4 4 5 10 6 9 7 2 8 1 9 3 10
REMARK H PARENT
ROOT
ATOM      1  C   UNL     1      -6.089  -0.883 -24.160  1.00  0.00     0.039 C 
ATOM      2  C   UNL     1      -5.365  -0.855 -25.475  1.00  0.00    -0.077 C 
ATOM      3  C   UNL     1      -5.686  -1.681 -26.487  1.00  0.00    -0.027 C 
ATOM      4  C   UNL     1      -4.957  -1.713 -27.801  1.00  0.00     0.035 C 
ATOM      5  C   UNL     1      -3.617  -0.946 -27.792  1.00  0.00     0.018 C 
ATOM      6  C   UNL     1      -3.798   0.388 -27.043  1.00  0.00     0.013 C 
ATOM      7  C   UNL     1      -4.254   0.158 -25.599  1.00  0.00     0.031 C 
ENDROOT
BRANCH   5   8
ATOM      8  C   UNL     1      -3.041  -0.829 -29.205  1.00  0.00    -0.077 C 
ATOM      9  C   UNL     1      -3.448  -1.557 -30.261  1.00  0.00     0.008 C 
ATOM     10  C   UNL     1      -1.961   0.209 -29.380  1.00  0.00     0.039 C 
ENDBRANCH   5   8
TORSDOF 1
ENDMDL
MODEL 9
REMARK VINA RESULT:      -5.1     14.415     17.791
REMARK SMILES C=C(C)[C@@H]1CC=C(C)CC1
REMARK SMILES IDX 8 1 7 2 6 3 5 4 4 5 10 6 9 7 2 8 1 9 3 10
REMARK H PARENT
ROOT
ATOM      1  C   UNL     1      -7.618   1.237 -32.967  1.00  0.00     0.039 C 
ATOM      2  C   UNL     1      -6.547   0.698 -32.065  1.00  0.00    -0.077 C 
ATOM      3  C   UNL     1      -6.750  -0.367 -31.269  1.00  0.00    -0.027 C 
ATOM      4  C   UNL     1      -5.718  -0.910 -30.320  1.00  0.00     0.035 C 
ATOM      5  C   UNL     1      -4.515   0.033 -30.099  1.00  0.00     0.018 C 
ATOM      6  C   UNL     1      -4.082   0.633 -31.449  1.00  0.00     0.013 C 
ATOM      7  C   UNL     1      -5.223   1.420 -32.101  1.00  0.00     0.031 C 
ENDROOT
BRANCH   5   8
ATOM      8  C   UNL     1      -3.407  -0.665 -29.308  1.00  0.00    -0.077 C 
ATOM      9  C   UNL     1      -3.516  -1.884 -28.749  1.00  0.00     0.008 C 
ATOM     10  C   UNL     1      -2.110   0.098 -29.199  1.00  0.00     0.039 C 
ENDBRANCH   5   8
TORSDOF 1
ENDMDL
MODEL 10
REMARK VINA RESULT:      -5.1     13.891     15.512
REMARK SMILES C=C(C)[C@@H]1CC=C(C)CC1
REMARK SMILES IDX 8 1 7 2 6 3 5 4 4 5 10 6 9 7 2 8 1 9 3 10
REMARK H PARENT
ROOT
ATOM      1  C   UNL     1      -3.489  -1.903 -28.910  1.00  0.00     0.039 C 
ATOM      2  C   UNL     1      -3.527  -0.412 -28.739  1.00  0.00    -0.077 C 
ATOM      3  C   UNL     1      -4.674   0.286 -28.798  1.00  0.00    -0.027 C 
ATOM      4  C   UNL     1      -4.749   1.783 -28.675  1.00  0.00     0.035 C 
ATOM      5  C   UNL     1      -3.380   2.488 -28.787  1.00  0.00     0.018 C 
ATOM      6  C   UNL     1      -2.332   1.699 -27.980  1.00  0.00     0.013 C 
ATOM      7  C   UNL     1      -2.200   0.262 -28.494  1.00  0.00     0.031 C 
ENDROOT
BRANCH   5   8
ATOM      8  C   UNL     1      -3.496   3.973 -28.434  1.00  0.00    -0.077 C 
ATOM      9  C   UNL     1      -2.493   4.723 -27.944  1.00  0.00     0.008 C 
ATOM     10  C   UNL     1      -4.843   4.598 -28.699  1.00  0.00     0.039 C 
ENDBRANCH   5   8
TORSDOF 1
ENDMDL
