MODEL 1
REMARK VINA RESULT:      -7.1      0.000      0.000
REMARK SMILES CC(C)=CCC/C(C)=C\C=O
REMARK SMILES IDX 5 1 4 2 2 3 1 4 3 5 6 6 7 7 9 8 8 9 10 10 11 11
REMARK H PARENT
ROOT
ATOM      1  C   UNL     1       4.783  -2.348 -22.790  1.00  0.00     0.032 C 
ENDROOT
BRANCH   1   2
ATOM      2  C   UNL     1       5.298  -1.682 -21.543  1.00  0.00    -0.028 C 
ATOM      3  C   UNL     1       6.209  -2.155 -20.672  1.00  0.00    -0.080 C 
ATOM      4  C   UNL     1       6.877  -3.500 -20.762  1.00  0.00     0.039 C 
ATOM      5  C   UNL     1       6.637  -1.332 -19.486  1.00  0.00     0.039 C 
ENDBRANCH   1   2
BRANCH   1   6
ATOM      6  C   UNL     1       5.280  -1.631 -24.049  1.00  0.00     0.035 C 
BRANCH   6   7
ATOM      7  C   UNL     1       4.140  -1.106 -24.898  1.00  0.00    -0.070 C 
ATOM      8  C   UNL     1       4.279  -0.467 -26.075  1.00  0.00     0.042 C 
ATOM      9  C   UNL     1       2.763  -1.366 -24.342  1.00  0.00     0.039 C 
BRANCH   8  10
ATOM     10  C   UNL     1       5.565  -0.123 -26.719  1.00  0.00     0.252 C 
ATOM     11  O   UNL     1       5.621   0.164 -27.909  1.00  0.00    -0.299 OA
ENDBRANCH   8  10
ENDBRANCH   6   7
ENDBRANCH   1   6
TORSDOF 4
ENDMDL
MODEL 2
REMARK VINA RESULT:      -6.9      1.394      2.551
REMARK SMILES CC(C)=CCC/C(C)=C\C=O
REMARK SMILES IDX 5 1 4 2 2 3 1 4 3 5 6 6 7 7 9 8 8 9 10 10 11 11
REMARK H PARENT
ROOT
ATOM      1  C   UNL     1       6.454  -2.743 -21.016  1.00  0.00     0.032 C 
ENDROOT
BRANCH   1   2
ATOM      2  C   UNL     1       6.139  -2.541 -19.558  1.00  0.00    -0.028 C 
ATOM      3  C   UNL     1       6.711  -1.669 -18.705  1.00  0.00    -0.080 C 
ATOM      4  C   UNL     1       7.836  -0.731 -19.049  1.00  0.00     0.039 C 
ATOM      5  C   UNL     1       6.245  -1.576 -17.276  1.00  0.00     0.039 C 
ENDBRANCH   1   2
BRANCH   1   6
ATOM      6  C   UNL     1       5.707  -1.731 -21.890  1.00  0.00     0.035 C 
BRANCH   6   7
ATOM      7  C   UNL     1       4.755  -2.402 -22.858  1.00  0.00    -0.070 C 
ATOM      8  C   UNL     1       4.536  -2.013 -24.129  1.00  0.00     0.042 C 
ATOM      9  C   UNL     1       4.038  -3.610 -22.309  1.00  0.00     0.039 C 
BRANCH   8  10
ATOM     10  C   UNL     1       5.148  -0.836 -24.783  1.00  0.00     0.252 C 
ATOM     11  O   UNL     1       4.527  -0.177 -25.609  1.00  0.00    -0.299 OA
ENDBRANCH   8  10
ENDBRANCH   6   7
ENDBRANCH   1   6
TORSDOF 4
ENDMDL
MODEL 3
REMARK VINA RESULT:      -6.8      3.653      6.620
REMARK SMILES CC(C)=CCC/C(C)=C\C=O
REMARK SMILES IDX 5 1 4 2 2 3 1 4 3 5 6 6 7 7 9 8 8 9 10 10 11 11
REMARK H PARENT
ROOT
ATOM      1  C   UNL     1       6.134  -2.351 -20.369  1.00  0.00     0.032 C 
ENDROOT
BRANCH   1   2
ATOM      2  C   UNL     1       5.932  -1.809 -21.758  1.00  0.00    -0.028 C 
ATOM      3  C   UNL     1       5.051  -2.230 -22.686  1.00  0.00    -0.080 C 
ATOM      4  C   UNL     1       4.101  -3.384 -22.520  1.00  0.00     0.039 C 
ATOM      5  C   UNL     1       4.960  -1.543 -24.024  1.00  0.00     0.039 C 
ENDBRANCH   1   2
BRANCH   1   6
ATOM      6  C   UNL     1       6.880  -1.348 -19.485  1.00  0.00     0.035 C 
BRANCH   6   7
ATOM      7  C   UNL     1       6.543  -1.514 -18.017  1.00  0.00    -0.070 C 
ATOM      8  C   UNL     1       6.784  -0.602 -17.056  1.00  0.00     0.042 C 
ATOM      9  C   UNL     1       5.865  -2.814 -17.665  1.00  0.00     0.039 C 
BRANCH   8  10
ATOM     10  C   UNL     1       7.464   0.697 -17.256  1.00  0.00     0.252 C 
ATOM     11  O   UNL     1       8.677   0.758 -17.419  1.00  0.00    -0.299 OA
ENDBRANCH   8  10
ENDBRANCH   6   7
ENDBRANCH   1   6
TORSDOF 4
ENDMDL
MODEL 4
REMARK VINA RESULT:      -5.9      3.045      5.421
REMARK SMILES CC(C)=CCC/C(C)=C\C=O
REMARK SMILES IDX 5 1 4 2 2 3 1 4 3 5 6 6 7 7 9 8 8 9 10 10 11 11
REMARK H PARENT
ROOT
ATOM      1  C   UNL     1       6.680  -0.863 -18.113  1.00  0.00     0.032 C 
ENDROOT
BRANCH   1   2
ATOM      2  C   UNL     1       7.780   0.068 -17.678  1.00  0.00    -0.028 C 
ATOM      3  C   UNL     1       8.666  -0.114 -16.679  1.00  0.00    -0.080 C 
ATOM      4  C   UNL     1       8.699  -1.300 -15.754  1.00  0.00     0.039 C 
ATOM      5  C   UNL     1       9.731   0.914 -16.402  1.00  0.00     0.039 C 
ENDBRANCH   1   2
BRANCH   1   6
ATOM      6  C   UNL     1       6.843  -1.265 -19.582  1.00  0.00     0.035 C 
BRANCH   6   7
ATOM      7  C   UNL     1       6.174  -2.588 -19.891  1.00  0.00    -0.070 C 
ATOM      8  C   UNL     1       5.614  -2.919 -21.070  1.00  0.00     0.042 C 
ATOM      9  C   UNL     1       6.184  -3.585 -18.760  1.00  0.00     0.039 C 
BRANCH   8  10
ATOM     10  C   UNL     1       5.510  -2.032 -22.250  1.00  0.00     0.252 C 
ATOM     11  O   UNL     1       4.641  -2.204 -23.097  1.00  0.00    -0.299 OA
ENDBRANCH   8  10
ENDBRANCH   6   7
ENDBRANCH   1   6
TORSDOF 4
ENDMDL
MODEL 5
REMARK VINA RESULT:      -5.7      4.963      8.024
REMARK SMILES CC(C)=CCC/C(C)=C\C=O
REMARK SMILES IDX 5 1 4 2 2 3 1 4 3 5 6 6 7 7 9 8 8 9 10 10 11 11
REMARK H PARENT
ROOT
ATOM      1  C   UNL     1       7.168  -1.108 -18.244  1.00  0.00     0.032 C 
ENDROOT
BRANCH   1   2
ATOM      2  C   UNL     1       6.668  -1.103 -19.663  1.00  0.00    -0.028 C 
ATOM      3  C   UNL     1       6.222  -2.150 -20.383  1.00  0.00    -0.080 C 
ATOM      4  C   UNL     1       6.176  -3.575 -19.904  1.00  0.00     0.039 C 
ATOM      5  C   UNL     1       5.723  -1.957 -21.791  1.00  0.00     0.039 C 
ENDBRANCH   1   2
BRANCH   1   6
ATOM      6  C   UNL     1       8.474  -0.319 -18.113  1.00  0.00     0.035 C 
BRANCH   6   7
ATOM      7  C   UNL     1       8.453   0.633 -16.934  1.00  0.00    -0.070 C 
ATOM      8  C   UNL     1       9.397   0.704 -15.976  1.00  0.00     0.042 C 
ATOM      9  C   UNL     1       7.269   1.566 -16.892  1.00  0.00     0.039 C 
BRANCH   8  10
ATOM     10  C   UNL     1      10.590  -0.165 -15.879  1.00  0.00     0.252 C 
ATOM     11  O   UNL     1      11.717   0.285 -16.050  1.00  0.00    -0.299 OA
ENDBRANCH   8  10
ENDBRANCH   6   7
ENDBRANCH   1   6
TORSDOF 4
ENDMDL
MODEL 6
REMARK VINA RESULT:      -5.6      4.842      6.941
REMARK SMILES CC(C)=CCC/C(C)=C\C=O
REMARK SMILES IDX 5 1 4 2 2 3 1 4 3 5 6 6 7 7 9 8 8 9 10 10 11 11
REMARK H PARENT
ROOT
ATOM      1  C   UNL     1       7.532   0.451 -17.325  1.00  0.00     0.032 C 
ENDROOT
BRANCH   1   2
ATOM      2  C   UNL     1       8.958   0.659 -16.892  1.00  0.00    -0.028 C 
ATOM      3  C   UNL     1       9.695  -0.123 -16.080  1.00  0.00    -0.080 C 
ATOM      4  C   UNL     1       9.204  -1.371 -15.398  1.00  0.00     0.039 C 
ATOM      5  C   UNL     1      11.131   0.220 -15.778  1.00  0.00     0.039 C 
ENDBRANCH   1   2
BRANCH   1   6
ATOM      6  C   UNL     1       7.445  -0.542 -18.488  1.00  0.00     0.035 C 
BRANCH   6   7
ATOM      7  C   UNL     1       6.540  -1.715 -18.174  1.00  0.00    -0.070 C 
ATOM      8  C   UNL     1       6.248  -2.721 -19.021  1.00  0.00     0.042 C 
ATOM      9  C   UNL     1       5.964  -1.717 -16.780  1.00  0.00     0.039 C 
BRANCH   8  10
ATOM     10  C   UNL     1       6.719  -2.829 -20.419  1.00  0.00     0.252 C 
ATOM     11  O   UNL     1       7.826  -3.285 -20.680  1.00  0.00    -0.299 OA
ENDBRANCH   8  10
ENDBRANCH   6   7
ENDBRANCH   1   6
TORSDOF 4
ENDMDL
MODEL 7
REMARK VINA RESULT:      -5.2     12.763     15.015
REMARK SMILES CC(C)=CCC/C(C)=C\C=O
REMARK SMILES IDX 5 1 4 2 2 3 1 4 3 5 6 6 7 7 9 8 8 9 10 10 11 11
REMARK H PARENT
ROOT
ATOM      1  C   UNL     1      -6.075   0.185 -31.379  1.00  0.00     0.032 C 
ENDROOT
BRANCH   1   2
ATOM      2  C   UNL     1      -5.434  -0.715 -30.359  1.00  0.00    -0.028 C 
ATOM      3  C   UNL     1      -4.121  -0.972 -30.196  1.00  0.00    -0.080 C 
ATOM      4  C   UNL     1      -3.017  -0.421 -31.055  1.00  0.00     0.039 C 
ATOM      5  C   UNL     1      -3.649  -1.880 -29.091  1.00  0.00     0.039 C 
ENDBRANCH   1   2
BRANCH   1   6
ATOM      6  C   UNL     1      -7.474  -0.312 -31.757  1.00  0.00     0.035 C 
BRANCH   6   7
ATOM      7  C   UNL     1      -8.106   0.528 -32.848  1.00  0.00    -0.070 C 
ATOM      8  C   UNL     1      -9.430   0.664 -33.055  1.00  0.00     0.042 C 
ATOM      9  C   UNL     1      -7.128   1.266 -33.727  1.00  0.00     0.039 C 
BRANCH   8  10
ATOM     10  C   UNL     1     -10.494  -0.020 -32.289  1.00  0.00     0.252 C 
ATOM     11  O   UNL     1     -11.518  -0.410 -32.837  1.00  0.00    -0.299 OA
ENDBRANCH   8  10
ENDBRANCH   6   7
ENDBRANCH   1   6
TORSDOF 4
ENDMDL
MODEL 8
REMARK VINA RESULT:      -5.1      9.819     11.641
REMARK SMILES CC(C)=CCC/C(C)=C\C=O
REMARK SMILES IDX 5 1 4 2 2 3 1 4 3 5 6 6 7 7 9 8 8 9 10 10 11 11
REMARK H PARENT
ROOT
ATOM      1  C   UNL     1      -3.118   1.369 -27.707  1.00  0.00     0.032 C 
ENDROOT
BRANCH   1   2
ATOM      2  C   UNL     1      -3.410   2.402 -28.761  1.00  0.00    -0.028 C 
ATOM      3  C   UNL     1      -4.600   2.695 -29.320  1.00  0.00    -0.080 C 
ATOM      4  C   UNL     1      -5.896   1.996 -29.016  1.00  0.00     0.039 C 
ATOM      5  C   UNL     1      -4.716   3.793 -30.345  1.00  0.00     0.039 C 
ENDBRANCH   1   2
BRANCH   1   6
ATOM      6  C   UNL     1      -2.445   0.133 -28.312  1.00  0.00     0.035 C 
BRANCH   6   7
ATOM      7  C   UNL     1      -3.454  -0.871 -28.832  1.00  0.00    -0.070 C 
ATOM      8  C   UNL     1      -3.731  -1.092 -30.131  1.00  0.00     0.042 C 
ATOM      9  C   UNL     1      -4.157  -1.674 -27.767  1.00  0.00     0.039 C 
BRANCH   8  10
ATOM     10  C   UNL     1      -3.138  -0.361 -31.272  1.00  0.00     0.252 C 
ATOM     11  O   UNL     1      -3.784   0.476 -31.892  1.00  0.00    -0.299 OA
ENDBRANCH   8  10
ENDBRANCH   6   7
ENDBRANCH   1   6
TORSDOF 4
ENDMDL
MODEL 9
REMARK VINA RESULT:      -5.1      6.539      9.849
REMARK SMILES CC(C)=CCC/C(C)=C\C=O
REMARK SMILES IDX 5 1 4 2 2 3 1 4 3 5 6 6 7 7 9 8 8 9 10 10 11 11
REMARK H PARENT
ROOT
ATOM      1  C   UNL     1       9.101   0.161 -16.049  1.00  0.00     0.032 C 
ENDROOT
BRANCH   1   2
ATOM      2  C   UNL     1       8.598  -0.243 -17.409  1.00  0.00    -0.028 C 
ATOM      3  C   UNL     1       7.447  -0.877 -17.706  1.00  0.00    -0.080 C 
ATOM      4  C   UNL     1       6.434  -1.354 -16.701  1.00  0.00     0.039 C 
ATOM      5  C   UNL     1       7.083  -1.175 -19.137  1.00  0.00     0.039 C 
ENDBRANCH   1   2
BRANCH   1   6
ATOM      6  C   UNL     1      10.034   1.372 -16.141  1.00  0.00     0.035 C 
BRANCH   6   7
ATOM      7  C   UNL     1      11.439   1.050 -15.676  1.00  0.00    -0.070 C 
ATOM      8  C   UNL     1      12.512   1.850 -15.831  1.00  0.00     0.042 C 
ATOM      9  C   UNL     1      11.586  -0.274 -14.970  1.00  0.00     0.039 C 
BRANCH   8  10
ATOM     10  C   UNL     1      12.515   3.156 -16.525  1.00  0.00     0.252 C 
ATOM     11  O   UNL     1      13.480   3.519 -17.187  1.00  0.00    -0.299 OA
ENDBRANCH   8  10
ENDBRANCH   6   7
ENDBRANCH   1   6
TORSDOF 4
ENDMDL
MODEL 10
REMARK VINA RESULT:      -5.1     10.113     11.889
REMARK SMILES CC(C)=CCC/C(C)=C\C=O
REMARK SMILES IDX 5 1 4 2 2 3 1 4 3 5 6 6 7 7 9 8 8 9 10 10 11 11
REMARK H PARENT
ROOT
ATOM      1  C   UNL     1      -4.689  -2.053 -27.713  1.00  0.00     0.032 C 
ENDROOT
BRANCH   1   2
ATOM      2  C   UNL     1      -3.606  -1.464 -28.577  1.00  0.00    -0.028 C 
ATOM      3  C   UNL     1      -3.011  -0.263 -28.447  1.00  0.00    -0.080 C 
ATOM      4  C   UNL     1      -3.354   0.768 -27.407  1.00  0.00     0.039 C 
ATOM      5  C   UNL     1      -1.910   0.154 -29.389  1.00  0.00     0.039 C 
ENDBRANCH   1   2
BRANCH   1   6
ATOM      6  C   UNL     1      -6.028  -2.096 -28.455  1.00  0.00     0.035 C 
BRANCH   6   7
ATOM      7  C   UNL     1      -6.698  -0.738 -28.509  1.00  0.00    -0.070 C 
ATOM      8  C   UNL     1      -6.933  -0.031 -29.631  1.00  0.00     0.042 C 
ATOM      9  C   UNL     1      -7.136  -0.193 -27.173  1.00  0.00     0.039 C 
BRANCH   8  10
ATOM     10  C   UNL     1      -6.534  -0.432 -30.998  1.00  0.00     0.252 C 
ATOM     11  O   UNL     1      -5.394  -0.244 -31.405  1.00  0.00    -0.299 OA
ENDBRANCH   8  10
ENDBRANCH   6   7
ENDBRANCH   1   6
TORSDOF 4
ENDMDL
