MODEL 1
REMARK VINA RESULT:      -6.3      0.000      0.000
REMARK SMILES O=C(O)/C=C/c1ccccc1O
REMARK SMILES IDX 5 1 4 2 6 3 8 4 9 5 7 6 10 7 11 8 12 9 2 11 1 12 3 13
REMARK H PARENT 12 10 3 14
ROOT
ATOM      1  C   UNL     1       6.167  -2.177 -19.883  1.00  0.00     0.019 C 
ATOM      2  C   UNL     1       5.972  -1.606 -21.081  1.00  0.00     0.094 C 
ENDROOT
BRANCH   1   3
ATOM      3  C   UNL     1       6.844  -1.510 -18.758  1.00  0.00     0.017 A 
ATOM      4  C   UNL     1       8.552   0.081 -18.061  1.00  0.00     0.001 A 
ATOM      5  C   UNL     1       8.193  -0.100 -16.728  1.00  0.00     0.004 A 
ATOM      6  C   UNL     1       7.879  -0.614 -19.069  1.00  0.00     0.012 A 
ATOM      7  C   UNL     1       7.156  -0.972 -16.400  1.00  0.00     0.047 A 
ATOM      8  C   UNL     1       6.483  -1.666 -17.410  1.00  0.00     0.122 A 
BRANCH   8   9
ATOM      9  O   UNL     1       5.449  -2.499 -17.068  1.00  0.00    -0.507 OA
ATOM     10  H   UNL     1       4.628  -2.138 -17.442  1.00  0.00     0.293 HD
ENDBRANCH   8   9
ENDBRANCH   1   3
BRANCH   2  11
ATOM     11  C   UNL     1       5.269  -2.356 -22.136  1.00  0.00     0.328 C 
ATOM     12  O   UNL     1       4.662  -3.400 -21.964  1.00  0.00    -0.247 OA
BRANCH  11  13
ATOM     13  O   UNL     1       5.374  -1.748 -23.335  1.00  0.00    -0.478 OA
ATOM     14  H   UNL     1       5.933  -2.218 -23.979  1.00  0.00     0.297 HD
ENDBRANCH  11  13
ENDBRANCH   2  11
TORSDOF 4
ENDMDL
MODEL 2
REMARK VINA RESULT:      -6.0      2.978      5.248
REMARK SMILES O=C(O)/C=C/c1ccccc1O
REMARK SMILES IDX 5 1 4 2 6 3 8 4 9 5 7 6 10 7 11 8 12 9 2 11 1 12 3 13
REMARK H PARENT 12 10 3 14
ROOT
ATOM      1  C   UNL     1       7.348   0.200 -17.319  1.00  0.00     0.019 C 
ATOM      2  C   UNL     1       8.539   0.301 -16.711  1.00  0.00     0.094 C 
ENDROOT
BRANCH   1   3
ATOM      3  C   UNL     1       6.898  -1.000 -18.045  1.00  0.00     0.017 A 
ATOM      4  C   UNL     1       6.888  -2.225 -20.151  1.00  0.00     0.001 A 
ATOM      5  C   UNL     1       6.176  -3.263 -19.557  1.00  0.00     0.004 A 
ATOM      6  C   UNL     1       7.251  -1.104 -19.399  1.00  0.00     0.012 A 
ATOM      7  C   UNL     1       5.830  -3.186 -18.208  1.00  0.00     0.047 A 
ATOM      8  C   UNL     1       6.195  -2.064 -17.458  1.00  0.00     0.122 A 
BRANCH   8   9
ATOM      9  O   UNL     1       5.868  -2.020 -16.127  1.00  0.00    -0.507 OA
ATOM     10  H   UNL     1       5.110  -2.609 -15.978  1.00  0.00     0.293 HD
ENDBRANCH   8   9
ENDBRANCH   1   3
BRANCH   2  11
ATOM     11  C   UNL     1       8.888   1.543 -15.999  1.00  0.00     0.328 C 
ATOM     12  O   UNL     1       9.947   1.748 -15.433  1.00  0.00    -0.247 OA
BRANCH  11  13
ATOM     13  O   UNL     1       7.884   2.442 -16.043  1.00  0.00    -0.478 OA
ATOM     14  H   UNL     1       7.003   2.075 -15.849  1.00  0.00     0.297 HD
ENDBRANCH  11  13
ENDBRANCH   2  11
TORSDOF 4
ENDMDL
MODEL 3
REMARK VINA RESULT:      -5.8     12.910     14.055
REMARK SMILES O=C(O)/C=C/c1ccccc1O
REMARK SMILES IDX 5 1 4 2 6 3 8 4 9 5 7 6 10 7 11 8 12 9 2 11 1 12 3 13
REMARK H PARENT 12 10 3 14
ROOT
ATOM      1  C   UNL     1      -4.124  -0.131 -26.694  1.00  0.00     0.019 C 
ATOM      2  C   UNL     1      -4.986  -1.008 -26.159  1.00  0.00     0.094 C 
ENDROOT
BRANCH   1   3
ATOM      3  C   UNL     1      -3.558  -0.259 -28.047  1.00  0.00     0.017 A 
ATOM      4  C   UNL     1      -3.866  -1.095 -30.315  1.00  0.00     0.001 A 
ATOM      5  C   UNL     1      -2.651  -0.533 -30.699  1.00  0.00     0.004 A 
ATOM      6  C   UNL     1      -4.318  -0.954 -29.000  1.00  0.00     0.012 A 
ATOM      7  C   UNL     1      -1.889   0.177 -29.771  1.00  0.00     0.047 A 
ATOM      8  C   UNL     1      -2.345   0.317 -28.456  1.00  0.00     0.122 A 
BRANCH   8   9
ATOM      9  O   UNL     1      -1.593   1.040 -27.566  1.00  0.00    -0.507 OA
ATOM     10  H   UNL     1      -1.537   1.956 -27.885  1.00  0.00     0.293 HD
ENDBRANCH   8   9
ENDBRANCH   1   3
BRANCH   2  11
ATOM     11  C   UNL     1      -5.506  -0.780 -24.799  1.00  0.00     0.328 C 
ATOM     12  O   UNL     1      -6.270  -1.525 -24.211  1.00  0.00    -0.247 OA
BRANCH  11  13
ATOM     13  O   UNL     1      -5.032   0.366 -24.270  1.00  0.00    -0.478 OA
ATOM     14  H   UNL     1      -4.698   1.006 -24.924  1.00  0.00     0.297 HD
ENDBRANCH  11  13
ENDBRANCH   2  11
TORSDOF 4
ENDMDL
MODEL 4
REMARK VINA RESULT:      -5.7     16.553     19.089
REMARK SMILES O=C(O)/C=C/c1ccccc1O
REMARK SMILES IDX 5 1 4 2 6 3 8 4 9 5 7 6 10 7 11 8 12 9 2 11 1 12 3 13
REMARK H PARENT 12 10 3 14
ROOT
ATOM      1  C   UNL     1      -8.482   0.942 -31.761  1.00  0.00     0.019 C 
ATOM      2  C   UNL     1      -8.931   0.820 -33.019  1.00  0.00     0.094 C 
ENDROOT
BRANCH   1   3
ATOM      3  C   UNL     1      -7.055   0.960 -31.399  1.00  0.00     0.017 A 
ATOM      4  C   UNL     1      -5.104   2.319 -30.868  1.00  0.00     0.001 A 
ATOM      5  C   UNL     1      -4.352   1.171 -30.639  1.00  0.00     0.004 A 
ATOM      6  C   UNL     1      -6.447   2.215 -31.240  1.00  0.00     0.012 A 
ATOM      7  C   UNL     1      -4.943  -0.085 -30.775  1.00  0.00     0.047 A 
ATOM      8  C   UNL     1      -6.287  -0.187 -31.145  1.00  0.00     0.122 A 
BRANCH   8   9
ATOM      9  O   UNL     1      -6.855  -1.431 -31.248  1.00  0.00    -0.507 OA
ATOM     10  H   UNL     1      -6.329  -1.958 -31.873  1.00  0.00     0.293 HD
ENDBRANCH   8   9
ENDBRANCH   1   3
BRANCH   2  11
ATOM     11  C   UNL     1     -10.382   0.827 -33.277  1.00  0.00     0.328 C 
ATOM     12  O   UNL     1     -11.026  -0.133 -33.662  1.00  0.00    -0.247 OA
BRANCH  11  13
ATOM     13  O   UNL     1     -10.926   2.037 -33.034  1.00  0.00    -0.478 OA
ATOM     14  H   UNL     1     -10.547   2.505 -32.269  1.00  0.00     0.297 HD
ENDBRANCH  11  13
ENDBRANCH   2  11
TORSDOF 4
ENDMDL
MODEL 5
REMARK VINA RESULT:      -5.7     13.471     14.699
REMARK SMILES O=C(O)/C=C/c1ccccc1O
REMARK SMILES IDX 5 1 4 2 6 3 8 4 9 5 7 6 10 7 11 8 12 9 2 11 1 12 3 13
REMARK H PARENT 12 10 3 14
ROOT
ATOM      1  C   UNL     1      -0.153 -10.957 -26.472  1.00  0.00     0.019 C 
ATOM      2  C   UNL     1      -0.145 -12.277 -26.234  1.00  0.00     0.094 C 
ENDROOT
BRANCH   1   3
ATOM      3  C   UNL     1      -1.296 -10.236 -27.056  1.00  0.00     0.017 A 
ATOM      4  C   UNL     1      -3.648 -10.315 -27.689  1.00  0.00     0.001 A 
ATOM      5  C   UNL     1      -3.597  -8.982 -28.088  1.00  0.00     0.004 A 
ATOM      6  C   UNL     1      -2.507 -10.936 -27.172  1.00  0.00     0.012 A 
ATOM      7  C   UNL     1      -2.408  -8.265 -27.965  1.00  0.00     0.047 A 
ATOM      8  C   UNL     1      -1.268  -8.888 -27.446  1.00  0.00     0.122 A 
BRANCH   8   9
ATOM      9  O   UNL     1      -0.116  -8.157 -27.309  1.00  0.00    -0.507 OA
ATOM     10  H   UNL     1       0.518  -8.679 -26.790  1.00  0.00     0.293 HD
ENDBRANCH   8   9
ENDBRANCH   1   3
BRANCH   2  11
ATOM     11  C   UNL     1       1.047 -12.899 -25.632  1.00  0.00     0.328 C 
ATOM     12  O   UNL     1       1.811 -13.649 -26.214  1.00  0.00    -0.247 OA
BRANCH  11  13
ATOM     13  O   UNL     1       1.200 -12.539 -24.341  1.00  0.00    -0.478 OA
ATOM     14  H   UNL     1       0.731 -13.107 -23.705  1.00  0.00     0.297 HD
ENDBRANCH  11  13
ENDBRANCH   2  11
TORSDOF 4
ENDMDL
MODEL 6
REMARK VINA RESULT:      -5.7      2.329      3.261
REMARK SMILES O=C(O)/C=C/c1ccccc1O
REMARK SMILES IDX 5 1 4 2 6 3 8 4 9 5 7 6 10 7 11 8 12 9 2 11 1 12 3 13
REMARK H PARENT 12 10 3 14
ROOT
ATOM      1  C   UNL     1       7.393  -0.748 -17.892  1.00  0.00     0.019 C 
ATOM      2  C   UNL     1       7.765  -1.438 -18.981  1.00  0.00     0.094 C 
ENDROOT
BRANCH   1   3
ATOM      3  C   UNL     1       8.338  -0.075 -16.986  1.00  0.00     0.017 A 
ATOM      4  C   UNL     1      10.469  -0.191 -15.811  1.00  0.00     0.001 A 
ATOM      5  C   UNL     1      10.281   1.098 -15.319  1.00  0.00     0.004 A 
ATOM      6  C   UNL     1       9.507  -0.771 -16.643  1.00  0.00     0.012 A 
ATOM      7  C   UNL     1       9.133   1.812 -15.662  1.00  0.00     0.047 A 
ATOM      8  C   UNL     1       8.173   1.230 -16.495  1.00  0.00     0.122 A 
BRANCH   8   9
ATOM      9  O   UNL     1       7.065   1.958 -16.841  1.00  0.00    -0.507 OA
ATOM     10  H   UNL     1       7.045   2.047 -17.809  1.00  0.00     0.293 HD
ENDBRANCH   8   9
ENDBRANCH   1   3
BRANCH   2  11
ATOM     11  C   UNL     1       6.737  -2.062 -19.831  1.00  0.00     0.328 C 
ATOM     12  O   UNL     1       6.027  -1.463 -20.620  1.00  0.00    -0.247 OA
BRANCH  11  13
ATOM     13  O   UNL     1       6.668  -3.395 -19.634  1.00  0.00    -0.478 OA
ATOM     14  H   UNL     1       6.957  -3.688 -18.752  1.00  0.00     0.297 HD
ENDBRANCH  11  13
ENDBRANCH   2  11
TORSDOF 4
ENDMDL
MODEL 7
REMARK VINA RESULT:      -5.7     16.497     19.145
REMARK SMILES O=C(O)/C=C/c1ccccc1O
REMARK SMILES IDX 5 1 4 2 6 3 8 4 9 5 7 6 10 7 11 8 12 9 2 11 1 12 3 13
REMARK H PARENT 12 10 3 14
ROOT
ATOM      1  C   UNL     1      -8.460  -0.460 -32.303  1.00  0.00     0.019 C 
ATOM      2  C   UNL     1      -9.463   0.375 -31.993  1.00  0.00     0.094 C 
ENDROOT
BRANCH   1   3
ATOM      3  C   UNL     1      -7.379  -0.824 -31.372  1.00  0.00     0.017 A 
ATOM      4  C   UNL     1      -6.580  -2.397 -29.692  1.00  0.00     0.001 A 
ATOM      5  C   UNL     1      -5.380  -1.697 -29.591  1.00  0.00     0.004 A 
ATOM      6  C   UNL     1      -7.570  -1.967 -30.580  1.00  0.00     0.012 A 
ATOM      7  C   UNL     1      -5.165  -0.569 -30.383  1.00  0.00     0.047 A 
ATOM      8  C   UNL     1      -6.157  -0.142 -31.271  1.00  0.00     0.122 A 
BRANCH   8   9
ATOM      9  O   UNL     1      -5.915   0.954 -32.059  1.00  0.00    -0.507 OA
ATOM     10  H   UNL     1      -5.724   1.712 -31.480  1.00  0.00     0.293 HD
ENDBRANCH   8   9
ENDBRANCH   1   3
BRANCH   2  11
ATOM     11  C   UNL     1     -10.505   0.663 -32.994  1.00  0.00     0.328 C 
ATOM     12  O   UNL     1     -10.946  -0.146 -33.793  1.00  0.00    -0.247 OA
BRANCH  11  13
ATOM     13  O   UNL     1     -10.922   1.943 -32.927  1.00  0.00    -0.478 OA
ATOM     14  H   UNL     1     -10.214   2.591 -32.763  1.00  0.00     0.297 HD
ENDBRANCH  11  13
ENDBRANCH   2  11
TORSDOF 4
ENDMDL
MODEL 8
REMARK VINA RESULT:      -5.6     12.917     13.899
REMARK SMILES O=C(O)/C=C/c1ccccc1O
REMARK SMILES IDX 5 1 4 2 6 3 8 4 9 5 7 6 10 7 11 8 12 9 2 11 1 12 3 13
REMARK H PARENT 12 10 3 14
ROOT
ATOM      1  C   UNL     1      -5.193  -0.687 -26.302  1.00  0.00     0.019 C 
ATOM      2  C   UNL     1      -5.221  -0.272 -25.027  1.00  0.00     0.094 C 
ENDROOT
BRANCH   1   3
ATOM      3  C   UNL     1      -4.104  -0.373 -27.242  1.00  0.00     0.017 A 
ATOM      4  C   UNL     1      -2.209   1.067 -27.759  1.00  0.00     0.001 A 
ATOM      5  C   UNL     1      -1.936   0.318 -28.900  1.00  0.00     0.004 A 
ATOM      6  C   UNL     1      -3.282   0.721 -26.933  1.00  0.00     0.012 A 
ATOM      7  C   UNL     1      -2.731  -0.783 -29.215  1.00  0.00     0.047 A 
ATOM      8  C   UNL     1      -3.804  -1.128 -28.387  1.00  0.00     0.122 A 
BRANCH   8   9
ATOM      9  O   UNL     1      -4.557  -2.230 -28.701  1.00  0.00    -0.507 OA
ATOM     10  H   UNL     1      -5.475  -1.943 -28.841  1.00  0.00     0.293 HD
ENDBRANCH   8   9
ENDBRANCH   1   3
BRANCH   2  11
ATOM     11  C   UNL     1      -6.351  -0.655 -24.163  1.00  0.00     0.328 C 
ATOM     12  O   UNL     1      -7.215   0.109 -23.767  1.00  0.00    -0.247 OA
BRANCH  11  13
ATOM     13  O   UNL     1      -6.322  -1.967 -23.853  1.00  0.00    -0.478 OA
ATOM     14  H   UNL     1      -5.575  -2.457 -24.241  1.00  0.00     0.297 HD
ENDBRANCH  11  13
ENDBRANCH   2  11
TORSDOF 4
ENDMDL
MODEL 9
REMARK VINA RESULT:      -5.6     19.276     20.578
REMARK SMILES O=C(O)/C=C/c1ccccc1O
REMARK SMILES IDX 5 1 4 2 6 3 8 4 9 5 7 6 10 7 11 8 12 9 2 11 1 12 3 13
REMARK H PARENT 12 10 3 14
ROOT
ATOM      1  C   UNL     1      -9.770  -2.102 -31.126  1.00  0.00     0.019 C 
ATOM      2  C   UNL     1      -9.002  -3.191 -30.970  1.00  0.00     0.094 C 
ENDROOT
BRANCH   1   3
ATOM      3  C   UNL     1      -9.382  -0.935 -31.935  1.00  0.00     0.017 A 
ATOM      4  C   UNL     1      -7.567   0.488 -32.723  1.00  0.00     0.001 A 
ATOM      5  C   UNL     1      -8.464   1.228 -33.488  1.00  0.00     0.004 A 
ATOM      6  C   UNL     1      -8.022  -0.589 -31.957  1.00  0.00     0.012 A 
ATOM      7  C   UNL     1      -9.817   0.890 -33.493  1.00  0.00     0.047 A 
ATOM      8  C   UNL     1     -10.269  -0.189 -32.726  1.00  0.00     0.122 A 
BRANCH   8   9
ATOM      9  O   UNL     1     -11.599  -0.520 -32.766  1.00  0.00    -0.507 OA
ATOM     10  H   UNL     1     -12.076   0.180 -33.242  1.00  0.00     0.293 HD
ENDBRANCH   8   9
ENDBRANCH   1   3
BRANCH   2  11
ATOM     11  C   UNL     1      -9.491  -4.313 -30.150  1.00  0.00     0.328 C 
ATOM     12  O   UNL     1      -8.929  -4.749 -29.160  1.00  0.00    -0.247 OA
BRANCH  11  13
ATOM     13  O   UNL     1     -10.649  -4.812 -30.626  1.00  0.00    -0.478 OA
ATOM     14  H   UNL     1     -10.889  -5.687 -30.272  1.00  0.00     0.297 HD
ENDBRANCH  11  13
ENDBRANCH   2  11
TORSDOF 4
ENDMDL
MODEL 10
REMARK VINA RESULT:      -5.6     13.594     15.982
REMARK SMILES O=C(O)/C=C/c1ccccc1O
REMARK SMILES IDX 5 1 4 2 6 3 8 4 9 5 7 6 10 7 11 8 12 9 2 11 1 12 3 13
REMARK H PARENT 12 10 3 14
ROOT
ATOM      1  C   UNL     1      -5.574  -0.989 -30.369  1.00  0.00     0.019 C 
ATOM      2  C   UNL     1      -6.443  -0.230 -31.055  1.00  0.00     0.094 C 
ENDROOT
BRANCH   1   3
ATOM      3  C   UNL     1      -4.342  -0.470 -29.753  1.00  0.00     0.017 A 
ATOM      4  C   UNL     1      -3.264   0.350 -27.727  1.00  0.00     0.001 A 
ATOM      5  C   UNL     1      -2.055   0.472 -28.407  1.00  0.00     0.004 A 
ATOM      6  C   UNL     1      -4.398  -0.123 -28.394  1.00  0.00     0.012 A 
ATOM      7  C   UNL     1      -1.975   0.117 -29.753  1.00  0.00     0.047 A 
ATOM      8  C   UNL     1      -3.110  -0.357 -30.417  1.00  0.00     0.122 A 
BRANCH   8   9
ATOM      9  O   UNL     1      -3.004  -0.725 -31.734  1.00  0.00    -0.507 OA
ATOM     10  H   UNL     1      -2.350  -0.147 -32.162  1.00  0.00     0.293 HD
ENDBRANCH   8   9
ENDBRANCH   1   3
BRANCH   2  11
ATOM     11  C   UNL     1      -7.656  -0.846 -31.621  1.00  0.00     0.328 C 
ATOM     12  O   UNL     1      -8.406  -0.306 -32.415  1.00  0.00    -0.247 OA
BRANCH  11  13
ATOM     13  O   UNL     1      -7.846  -2.096 -31.151  1.00  0.00    -0.478 OA
ATOM     14  H   UNL     1      -7.643  -2.208 -30.206  1.00  0.00     0.297 HD
ENDBRANCH  11  13
ENDBRANCH   2  11
TORSDOF 4
ENDMDL
