MODEL 1
REMARK VINA RESULT:      -7.4      0.000      0.000
REMARK SMILES O=C(O)/C=C/c1cccc(O)c1
REMARK SMILES IDX 5 1 4 2 6 3 8 4 7 5 9 6 10 7 12 8 11 9 2 11 1 12 3 13
REMARK H PARENT 11 10 3 14
ROOT
ATOM      1  C   UNL     1       5.235  -2.712 -22.137  1.00  0.00     0.016 C 
ATOM      2  C   UNL     1       5.994  -2.109 -21.208  1.00  0.00     0.094 C 
ENDROOT
BRANCH   1   3
ATOM      3  C   UNL     1       4.641  -2.000 -23.274  1.00  0.00    -0.022 A 
ATOM      4  C   UNL     1       2.643  -1.306 -24.470  1.00  0.00     0.004 A 
ATOM      5  C   UNL     1       3.245  -1.961 -23.393  1.00  0.00     0.008 A 
ATOM      6  C   UNL     1       3.432  -0.698 -25.443  1.00  0.00     0.046 A 
ATOM      7  C   UNL     1       4.816  -0.754 -25.338  1.00  0.00     0.116 A 
ATOM      8  C   UNL     1       5.430  -1.401 -24.267  1.00  0.00     0.054 A 
BRANCH   7   9
ATOM      9  O   UNL     1       5.549  -0.160 -26.324  1.00  0.00    -0.508 OA
ATOM     10  H   UNL     1       5.489  -0.700 -27.130  1.00  0.00     0.293 HD
ENDBRANCH   7   9
ENDBRANCH   1   3
BRANCH   2  11
ATOM     11  C   UNL     1       6.535  -2.907 -20.091  1.00  0.00     0.328 C 
ATOM     12  O   UNL     1       5.868  -3.617 -19.359  1.00  0.00    -0.247 OA
BRANCH  11  13
ATOM     13  O   UNL     1       7.869  -2.765 -19.968  1.00  0.00    -0.478 OA
ATOM     14  H   UNL     1       8.323  -2.363 -20.731  1.00  0.00     0.297 HD
ENDBRANCH  11  13
ENDBRANCH   2  11
TORSDOF 4
ENDMDL
MODEL 2
REMARK VINA RESULT:      -6.7      2.701      6.346
REMARK SMILES O=C(O)/C=C/c1cccc(O)c1
REMARK SMILES IDX 5 1 4 2 6 3 8 4 7 5 9 6 10 7 12 8 11 9 2 11 1 12 3 13
REMARK H PARENT 11 10 3 14
ROOT
ATOM      1  C   UNL     1       6.073  -2.387 -20.781  1.00  0.00     0.016 C 
ATOM      2  C   UNL     1       5.367  -1.662 -21.664  1.00  0.00     0.094 C 
ENDROOT
BRANCH   1   3
ATOM      3  C   UNL     1       6.603  -1.835 -19.530  1.00  0.00    -0.022 A 
ATOM      4  C   UNL     1       8.325  -0.549 -18.396  1.00  0.00     0.004 A 
ATOM      5  C   UNL     1       7.782  -1.078 -19.570  1.00  0.00     0.008 A 
ATOM      6  C   UNL     1       7.702  -0.785 -17.173  1.00  0.00     0.046 A 
ATOM      7  C   UNL     1       6.545  -1.553 -17.130  1.00  0.00     0.116 A 
ATOM      8  C   UNL     1       5.990  -2.084 -18.293  1.00  0.00     0.054 A 
BRANCH   7   9
ATOM      9  O   UNL     1       5.979  -1.773 -15.908  1.00  0.00    -0.508 OA
ATOM     10  H   UNL     1       5.874  -2.730 -15.777  1.00  0.00     0.293 HD
ENDBRANCH   7   9
ENDBRANCH   1   3
BRANCH   2  11
ATOM     11  C   UNL     1       4.890  -2.303 -22.904  1.00  0.00     0.328 C 
ATOM     12  O   UNL     1       4.196  -3.304 -22.946  1.00  0.00    -0.247 OA
BRANCH  11  13
ATOM     13  O   UNL     1       5.309  -1.648 -24.005  1.00  0.00    -0.478 OA
ATOM     14  H   UNL     1       5.879  -0.874 -23.844  1.00  0.00     0.297 HD
ENDBRANCH  11  13
ENDBRANCH   2  11
TORSDOF 4
ENDMDL
MODEL 3
REMARK VINA RESULT:      -6.5      2.749      6.152
REMARK SMILES O=C(O)/C=C/c1cccc(O)c1
REMARK SMILES IDX 5 1 4 2 6 3 8 4 7 5 9 6 10 7 12 8 11 9 2 11 1 12 3 13
REMARK H PARENT 11 10 3 14
ROOT
ATOM      1  C   UNL     1       6.114  -2.400 -20.635  1.00  0.00     0.016 C 
ATOM      2  C   UNL     1       5.384  -1.660 -21.485  1.00  0.00     0.094 C 
ENDROOT
BRANCH   1   3
ATOM      3  C   UNL     1       6.543  -1.919 -19.316  1.00  0.00    -0.022 A 
ATOM      4  C   UNL     1       6.324  -2.027 -16.899  1.00  0.00     0.004 A 
ATOM      5  C   UNL     1       5.952  -2.470 -18.171  1.00  0.00     0.008 A 
ATOM      6  C   UNL     1       7.278  -1.021 -16.764  1.00  0.00     0.046 A 
ATOM      7  C   UNL     1       7.849  -0.460 -17.899  1.00  0.00     0.116 A 
ATOM      8  C   UNL     1       7.490  -0.895 -19.174  1.00  0.00     0.054 A 
BRANCH   7   9
ATOM      9  O   UNL     1       8.766   0.534 -17.720  1.00  0.00    -0.508 OA
ATOM     10  H   UNL     1       9.397   0.261 -17.034  1.00  0.00     0.293 HD
ENDBRANCH   7   9
ENDBRANCH   1   3
BRANCH   2  11
ATOM     11  C   UNL     1       5.015  -2.225 -22.797  1.00  0.00     0.328 C 
ATOM     12  O   UNL     1       5.323  -1.742 -23.872  1.00  0.00    -0.247 OA
BRANCH  11  13
ATOM     13  O   UNL     1       4.290  -3.354 -22.675  1.00  0.00    -0.478 OA
ATOM     14  H   UNL     1       4.478  -3.893 -21.885  1.00  0.00     0.297 HD
ENDBRANCH  11  13
ENDBRANCH   2  11
TORSDOF 4
ENDMDL
MODEL 4
REMARK VINA RESULT:      -6.1     13.466     16.481
REMARK SMILES O=C(O)/C=C/c1cccc(O)c1
REMARK SMILES IDX 5 1 4 2 6 3 8 4 7 5 9 6 10 7 12 8 11 9 2 11 1 12 3 13
REMARK H PARENT 11 10 3 14
ROOT
ATOM      1  C   UNL     1      -8.575   1.702 -31.897  1.00  0.00     0.016 C 
ATOM      2  C   UNL     1      -8.920   0.864 -32.887  1.00  0.00     0.094 C 
ENDROOT
BRANCH   1   3
ATOM      3  C   UNL     1      -7.203   1.824 -31.390  1.00  0.00    -0.022 A 
ATOM      4  C   UNL     1      -5.707   2.511 -29.603  1.00  0.00     0.004 A 
ATOM      5  C   UNL     1      -7.000   2.365 -30.114  1.00  0.00     0.008 A 
ATOM      6  C   UNL     1      -4.610   2.129 -30.370  1.00  0.00     0.046 A 
ATOM      7  C   UNL     1      -4.809   1.611 -31.643  1.00  0.00     0.116 A 
ATOM      8  C   UNL     1      -6.093   1.457 -32.164  1.00  0.00     0.054 A 
BRANCH   7   9
ATOM      9  O   UNL     1      -3.703   1.267 -32.365  1.00  0.00    -0.508 OA
ATOM     10  H   UNL     1      -2.919   1.658 -31.947  1.00  0.00     0.293 HD
ENDBRANCH   7   9
ENDBRANCH   1   3
BRANCH   2  11
ATOM     11  C   UNL     1     -10.330   0.800 -33.318  1.00  0.00     0.328 C 
ATOM     12  O   UNL     1     -10.848  -0.160 -33.861  1.00  0.00    -0.247 OA
BRANCH  11  13
ATOM     13  O   UNL     1     -10.995   1.939 -33.038  1.00  0.00    -0.478 OA
ATOM     14  H   UNL     1     -11.592   1.901 -32.269  1.00  0.00     0.297 HD
ENDBRANCH  11  13
ENDBRANCH   2  11
TORSDOF 4
ENDMDL
MODEL 5
REMARK VINA RESULT:      -6.0      4.350      7.453
REMARK SMILES O=C(O)/C=C/c1cccc(O)c1
REMARK SMILES IDX 5 1 4 2 6 3 8 4 7 5 9 6 10 7 12 8 11 9 2 11 1 12 3 13
REMARK H PARENT 11 10 3 14
ROOT
ATOM      1  C   UNL     1       7.832  -1.227 -19.109  1.00  0.00     0.016 C 
ATOM      2  C   UNL     1       6.550  -1.520 -19.382  1.00  0.00     0.094 C 
ENDROOT
BRANCH   1   3
ATOM      3  C   UNL     1       8.241  -0.411 -17.960  1.00  0.00    -0.022 A 
ATOM      4  C   UNL     1       9.716  -0.109 -16.053  1.00  0.00     0.004 A 
ATOM      5  C   UNL     1       9.307  -0.851 -17.165  1.00  0.00     0.008 A 
ATOM      6  C   UNL     1       9.053   1.070 -15.722  1.00  0.00     0.046 A 
ATOM      7  C   UNL     1       7.982   1.496 -16.498  1.00  0.00     0.116 A 
ATOM      8  C   UNL     1       7.567   0.768 -17.611  1.00  0.00     0.054 A 
BRANCH   7   9
ATOM      9  O   UNL     1       7.351   2.647 -16.126  1.00  0.00    -0.508 OA
ATOM     10  H   UNL     1       6.472   2.673 -16.539  1.00  0.00     0.293 HD
ENDBRANCH   7   9
ENDBRANCH   1   3
BRANCH   2  11
ATOM     11  C   UNL     1       6.236  -2.335 -20.572  1.00  0.00     0.328 C 
ATOM     12  O   UNL     1       5.611  -1.938 -21.540  1.00  0.00    -0.247 OA
BRANCH  11  13
ATOM     13  O   UNL     1       6.727  -3.586 -20.472  1.00  0.00    -0.478 OA
ATOM     14  H   UNL     1       7.460  -3.802 -21.077  1.00  0.00     0.297 HD
ENDBRANCH  11  13
ENDBRANCH   2  11
TORSDOF 4
ENDMDL
MODEL 6
REMARK VINA RESULT:      -5.9     11.735     13.011
REMARK SMILES O=C(O)/C=C/c1cccc(O)c1
REMARK SMILES IDX 5 1 4 2 6 3 8 4 7 5 9 6 10 7 12 8 11 9 2 11 1 12 3 13
REMARK H PARENT 11 10 3 14
ROOT
ATOM      1  C   UNL     1      -3.657 -10.129 -27.521  1.00  0.00     0.016 C 
ATOM      2  C   UNL     1      -4.465 -10.762 -26.654  1.00  0.00     0.094 C 
ENDROOT
BRANCH   1   3
ATOM      3  C   UNL     1      -2.217  -9.961 -27.300  1.00  0.00    -0.022 A 
ATOM      4  C   UNL     1      -0.286  -8.488 -27.248  1.00  0.00     0.004 A 
ATOM      5  C   UNL     1      -1.656  -8.684 -27.436  1.00  0.00     0.008 A 
ATOM      6  C   UNL     1       0.535  -9.569 -26.937  1.00  0.00     0.046 A 
ATOM      7  C   UNL     1      -0.015 -10.838 -26.822  1.00  0.00     0.116 A 
ATOM      8  C   UNL     1      -1.381 -11.048 -27.003  1.00  0.00     0.054 A 
BRANCH   7   9
ATOM      9  O   UNL     1       0.829 -11.870 -26.533  1.00  0.00    -0.508 OA
ATOM     10  H   UNL     1       1.634 -11.513 -26.123  1.00  0.00     0.293 HD
ENDBRANCH   7   9
ENDBRANCH   1   3
BRANCH   2  11
ATOM     11  C   UNL     1      -5.906 -10.866 -26.958  1.00  0.00     0.328 C 
ATOM     12  O   UNL     1      -6.591 -11.850 -26.742  1.00  0.00    -0.247 OA
BRANCH  11  13
ATOM     13  O   UNL     1      -6.389  -9.735 -27.506  1.00  0.00    -0.478 OA
ATOM     14  H   UNL     1      -5.726  -9.141 -27.903  1.00  0.00     0.297 HD
ENDBRANCH  11  13
ENDBRANCH   2  11
TORSDOF 4
ENDMDL
MODEL 7
REMARK VINA RESULT:      -5.9     13.271     16.291
REMARK SMILES O=C(O)/C=C/c1cccc(O)c1
REMARK SMILES IDX 5 1 4 2 6 3 8 4 7 5 9 6 10 7 12 8 11 9 2 11 1 12 3 13
REMARK H PARENT 11 10 3 14
ROOT
ATOM      1  C   UNL     1      -8.426  -0.048 -32.079  1.00  0.00     0.016 C 
ATOM      2  C   UNL     1      -8.898   0.906 -32.899  1.00  0.00     0.094 C 
ENDROOT
BRANCH   1   3
ATOM      3  C   UNL     1      -7.032  -0.098 -31.624  1.00  0.00    -0.022 A 
ATOM      4  C   UNL     1      -5.344  -1.146 -30.226  1.00  0.00     0.004 A 
ATOM      5  C   UNL     1      -6.659  -1.077 -30.694  1.00  0.00     0.008 A 
ATOM      6  C   UNL     1      -4.397  -0.229 -30.675  1.00  0.00     0.046 A 
ATOM      7  C   UNL     1      -4.770   0.755 -31.581  1.00  0.00     0.116 A 
ATOM      8  C   UNL     1      -6.077   0.833 -32.059  1.00  0.00     0.054 A 
BRANCH   7   9
ATOM      9  O   UNL     1      -3.814   1.643 -31.980  1.00  0.00    -0.508 OA
ATOM     10  H   UNL     1      -3.409   1.322 -32.802  1.00  0.00     0.293 HD
ENDBRANCH   7   9
ENDBRANCH   1   3
BRANCH   2  11
ATOM     11  C   UNL     1     -10.313   0.862 -33.314  1.00  0.00     0.328 C 
ATOM     12  O   UNL     1     -10.856  -0.100 -33.828  1.00  0.00    -0.247 OA
BRANCH  11  13
ATOM     13  O   UNL     1     -10.951   2.021 -33.057  1.00  0.00    -0.478 OA
ATOM     14  H   UNL     1     -10.542   2.585 -32.376  1.00  0.00     0.297 HD
ENDBRANCH  11  13
ENDBRANCH   2  11
TORSDOF 4
ENDMDL
MODEL 8
REMARK VINA RESULT:      -5.8      9.956     10.869
REMARK SMILES O=C(O)/C=C/c1cccc(O)c1
REMARK SMILES IDX 5 1 4 2 6 3 8 4 7 5 9 6 10 7 12 8 11 9 2 11 1 12 3 13
REMARK H PARENT 11 10 3 14
ROOT
ATOM      1  C   UNL     1      -5.390  -1.372 -25.840  1.00  0.00     0.016 C 
ATOM      2  C   UNL     1      -5.846  -0.484 -24.941  1.00  0.00     0.094 C 
ENDROOT
BRANCH   1   3
ATOM      3  C   UNL     1      -4.447  -1.023 -26.908  1.00  0.00    -0.022 A 
ATOM      4  C   UNL     1      -3.355  -1.632 -28.991  1.00  0.00     0.004 A 
ATOM      5  C   UNL     1      -4.256  -1.924 -27.963  1.00  0.00     0.008 A 
ATOM      6  C   UNL     1      -2.629  -0.444 -28.962  1.00  0.00     0.046 A 
ATOM      7  C   UNL     1      -2.802   0.441 -27.906  1.00  0.00     0.116 A 
ATOM      8  C   UNL     1      -3.700   0.164 -26.876  1.00  0.00     0.054 A 
BRANCH   7   9
ATOM      9  O   UNL     1      -2.057   1.584 -27.910  1.00  0.00    -0.508 OA
ATOM     10  H   UNL     1      -1.319   1.476 -28.533  1.00  0.00     0.293 HD
ENDBRANCH   7   9
ENDBRANCH   1   3
BRANCH   2  11
ATOM     11  C   UNL     1      -6.806  -0.929 -23.913  1.00  0.00     0.328 C 
ATOM     12  O   UNL     1      -7.689  -0.234 -23.442  1.00  0.00    -0.247 OA
BRANCH  11  13
ATOM     13  O   UNL     1      -6.599  -2.209 -23.548  1.00  0.00    -0.478 OA
ATOM     14  H   UNL     1      -6.392  -2.827 -24.273  1.00  0.00     0.297 HD
ENDBRANCH  11  13
ENDBRANCH   2  11
TORSDOF 4
ENDMDL
MODEL 9
REMARK VINA RESULT:      -5.8     10.177     10.884
REMARK SMILES O=C(O)/C=C/c1cccc(O)c1
REMARK SMILES IDX 5 1 4 2 6 3 8 4 7 5 9 6 10 7 12 8 11 9 2 11 1 12 3 13
REMARK H PARENT 11 10 3 14
ROOT
ATOM      1  C   UNL     1      -4.785  -0.135 -26.032  1.00  0.00     0.016 C 
ATOM      2  C   UNL     1      -5.549  -1.150 -25.597  1.00  0.00     0.094 C 
ENDROOT
BRANCH   1   3
ATOM      3  C   UNL     1      -3.946  -0.219 -27.233  1.00  0.00    -0.022 A 
ATOM      4  C   UNL     1      -2.089   0.658 -28.531  1.00  0.00     0.004 A 
ATOM      5  C   UNL     1      -2.899   0.698 -27.393  1.00  0.00     0.008 A 
ATOM      6  C   UNL     1      -2.330  -0.289 -29.523  1.00  0.00     0.046 A 
ATOM      7  C   UNL     1      -3.381  -1.186 -29.376  1.00  0.00     0.116 A 
ATOM      8  C   UNL     1      -4.194  -1.160 -28.244  1.00  0.00     0.054 A 
BRANCH   7   9
ATOM      9  O   UNL     1      -3.590  -2.084 -30.381  1.00  0.00    -0.508 OA
ATOM     10  H   UNL     1      -3.052  -1.829 -31.149  1.00  0.00     0.293 HD
ENDBRANCH   7   9
ENDBRANCH   1   3
BRANCH   2  11
ATOM     11  C   UNL     1      -6.346  -0.975 -24.367  1.00  0.00     0.328 C 
ATOM     12  O   UNL     1      -6.892   0.063 -24.036  1.00  0.00    -0.247 OA
BRANCH  11  13
ATOM     13  O   UNL     1      -6.407  -2.107 -23.639  1.00  0.00    -0.478 OA
ATOM     14  H   UNL     1      -6.680  -2.907 -24.125  1.00  0.00     0.297 HD
ENDBRANCH  11  13
ENDBRANCH   2  11
TORSDOF 4
ENDMDL
MODEL 10
REMARK VINA RESULT:      -5.7     13.301     16.291
REMARK SMILES O=C(O)/C=C/c1cccc(O)c1
REMARK SMILES IDX 5 1 4 2 6 3 8 4 7 5 9 6 10 7 12 8 11 9 2 11 1 12 3 13
REMARK H PARENT 11 10 3 14
ROOT
ATOM      1  C   UNL     1      -8.527   1.136 -31.601  1.00  0.00     0.016 C 
ATOM      2  C   UNL     1      -9.064   0.618 -32.718  1.00  0.00     0.094 C 
ENDROOT
BRANCH   1   3
ATOM      3  C   UNL     1      -7.096   1.058 -31.287  1.00  0.00    -0.022 A 
ATOM      4  C   UNL     1      -5.159  -0.313 -30.767  1.00  0.00     0.004 A 
ATOM      5  C   UNL     1      -6.516  -0.200 -31.082  1.00  0.00     0.008 A 
ATOM      6  C   UNL     1      -4.378   0.833 -30.639  1.00  0.00     0.046 A 
ATOM      7  C   UNL     1      -4.957   2.082 -30.821  1.00  0.00     0.116 A 
ATOM      8  C   UNL     1      -6.308   2.209 -31.140  1.00  0.00     0.054 A 
BRANCH   7   9
ATOM      9  O   UNL     1      -4.157   3.177 -30.669  1.00  0.00    -0.508 OA
ATOM     10  H   UNL     1      -4.427   3.856 -31.310  1.00  0.00     0.293 HD
ENDBRANCH   7   9
ENDBRANCH   1   3
BRANCH   2  11
ATOM     11  C   UNL     1     -10.519   0.732 -32.937  1.00  0.00     0.328 C 
ATOM     12  O   UNL     1     -11.282  -0.212 -33.035  1.00  0.00    -0.247 OA
BRANCH  11  13
ATOM     13  O   UNL     1     -10.919   2.017 -33.016  1.00  0.00    -0.478 OA
ATOM     14  H   UNL     1     -11.784   2.164 -33.441  1.00  0.00     0.297 HD
ENDBRANCH  11  13
ENDBRANCH   2  11
TORSDOF 4
ENDMDL
