MODEL 1
REMARK VINA RESULT:      -7.7      0.000      0.000
REMARK SMILES CCCCCCCCCCCC(=O)O
REMARK SMILES IDX 7 1 6 2 5 3 4 4 3 5 2 6 1 7 8 8 9 9 10 10 11 11 12 12 13 13
REMARK SMILES IDX 14 14
REMARK H PARENT 14 15
ROOT
ATOM      1  C   UNL     1       5.413  -1.926 -21.682  1.00  0.00     0.000 C 
ENDROOT
BRANCH   1   2
ATOM      2  C   UNL     1       4.631  -2.305 -22.942  1.00  0.00     0.000 C 
BRANCH   2   3
ATOM      3  C   UNL     1       5.137  -1.540 -24.165  1.00  0.00    -0.000 C 
BRANCH   3   4
ATOM      4  C   UNL     1       3.995  -1.222 -25.131  1.00  0.00    -0.000 C 
BRANCH   4   5
ATOM      5  C   UNL     1       4.521  -0.624 -26.438  1.00  0.00    -0.000 C 
BRANCH   5   6
ATOM      6  C   UNL     1       5.766   0.230 -26.196  1.00  0.00    -0.003 C 
ATOM      7  C   UNL     1       6.641   0.302 -27.438  1.00  0.00     0.004 C 
ENDBRANCH   5   6
ENDBRANCH   4   5
ENDBRANCH   3   4
ENDBRANCH   2   3
ENDBRANCH   1   2
BRANCH   1   8
ATOM      8  C   UNL     1       6.013  -3.160 -21.008  1.00  0.00     0.000 C 
BRANCH   8   9
ATOM      9  C   UNL     1       6.876  -2.775 -19.805  1.00  0.00     0.001 C 
BRANCH   9  10
ATOM     10  C   UNL     1       6.632  -1.325 -19.388  1.00  0.00     0.012 C 
BRANCH  10  11
ATOM     11  C   UNL     1       7.918  -0.661 -18.898  1.00  0.00     0.122 C 
BRANCH  11  12
ATOM     12  C   UNL     1       7.706   0.100 -17.609  1.00  0.00     0.303 C 
ATOM     13  O   UNL     1       6.831  -0.125 -16.789  1.00  0.00    -0.252 OA
BRANCH  12  14
ATOM     14  O   UNL     1       8.612   1.092 -17.446  1.00  0.00    -0.481 OA
ATOM     15  H   UNL     1       8.530   1.809 -18.102  1.00  0.00     0.296 HD
ENDBRANCH  12  14
ENDBRANCH  11  12
ENDBRANCH  10  11
ENDBRANCH   9  10
ENDBRANCH   8   9
ENDBRANCH   1   8
TORSDOF 11
ENDMDL
MODEL 2
REMARK VINA RESULT:      -7.7      3.811      7.639
REMARK SMILES CCCCCCCCCCCC(=O)O
REMARK SMILES IDX 7 1 6 2 5 3 4 4 3 5 2 6 1 7 8 8 9 9 10 10 11 11 12 12 13 13
REMARK SMILES IDX 14 14
REMARK H PARENT 14 15
ROOT
ATOM      1  C   UNL     1       6.441  -2.930 -20.597  1.00  0.00     0.000 C 
ENDROOT
BRANCH   1   2
ATOM      2  C   UNL     1       6.526  -2.238 -19.234  1.00  0.00     0.000 C 
BRANCH   2   3
ATOM      3  C   UNL     1       7.265  -0.903 -19.332  1.00  0.00    -0.000 C 
BRANCH   3   4
ATOM      4  C   UNL     1       8.374  -0.805 -18.284  1.00  0.00    -0.000 C 
BRANCH   4   5
ATOM      5  C   UNL     1       8.292   0.509 -17.505  1.00  0.00    -0.000 C 
BRANCH   5   6
ATOM      6  C   UNL     1       8.619   0.299 -16.027  1.00  0.00    -0.003 C 
ATOM      7  C   UNL     1       9.032  -1.137 -15.747  1.00  0.00     0.004 C 
ENDBRANCH   5   6
ENDBRANCH   4   5
ENDBRANCH   3   4
ENDBRANCH   2   3
ENDBRANCH   1   2
BRANCH   1   8
ATOM      8  C   UNL     1       5.677  -2.074 -21.608  1.00  0.00     0.000 C 
BRANCH   8   9
ATOM      9  C   UNL     1       4.725  -2.922 -22.452  1.00  0.00     0.001 C 
BRANCH   9  10
ATOM     10  C   UNL     1       3.949  -2.061 -23.449  1.00  0.00     0.012 C 
BRANCH  10  11
ATOM     11  C   UNL     1       4.888  -1.358 -24.428  1.00  0.00     0.122 C 
BRANCH  11  12
ATOM     12  C   UNL     1       4.132  -0.665 -25.538  1.00  0.00     0.303 C 
ATOM     13  O   UNL     1       4.543  -0.487 -26.672  1.00  0.00    -0.252 OA
BRANCH  12  14
ATOM     14  O   UNL     1       2.909  -0.245 -25.138  1.00  0.00    -0.481 OA
ATOM     15  H   UNL     1       2.210  -0.919 -25.243  1.00  0.00     0.296 HD
ENDBRANCH  12  14
ENDBRANCH  11  12
ENDBRANCH  10  11
ENDBRANCH   9  10
ENDBRANCH   8   9
ENDBRANCH   1   8
TORSDOF 11
ENDMDL
MODEL 3
REMARK VINA RESULT:      -6.8      1.597      2.795
REMARK SMILES CCCCCCCCCCCC(=O)O
REMARK SMILES IDX 7 1 6 2 5 3 4 4 3 5 2 6 1 7 8 8 9 9 10 10 11 11 12 12 13 13
REMARK SMILES IDX 14 14
REMARK H PARENT 14 15
ROOT
ATOM      1  C   UNL     1       6.751  -1.706 -19.926  1.00  0.00     0.000 C 
ENDROOT
BRANCH   1   2
ATOM      2  C   UNL     1       5.921  -2.643 -20.807  1.00  0.00     0.000 C 
BRANCH   2   3
ATOM      3  C   UNL     1       5.566  -1.986 -22.141  1.00  0.00    -0.000 C 
BRANCH   3   4
ATOM      4  C   UNL     1       4.404  -2.710 -22.823  1.00  0.00    -0.000 C 
BRANCH   4   5
ATOM      5  C   UNL     1       3.861  -1.902 -24.004  1.00  0.00    -0.000 C 
BRANCH   5   6
ATOM      6  C   UNL     1       4.988  -1.203 -24.763  1.00  0.00    -0.003 C 
ATOM      7  C   UNL     1       4.473  -0.524 -26.022  1.00  0.00     0.004 C 
ENDBRANCH   5   6
ENDBRANCH   4   5
ENDBRANCH   3   4
ENDBRANCH   2   3
ENDBRANCH   1   2
BRANCH   1   8
ATOM      8  C   UNL     1       6.397  -1.874 -18.448  1.00  0.00     0.000 C 
BRANCH   8   9
ATOM      9  C   UNL     1       6.730  -0.615 -17.647  1.00  0.00     0.001 C 
BRANCH   9  10
ATOM     10  C   UNL     1       8.230  -0.320 -17.673  1.00  0.00     0.012 C 
BRANCH  10  11
ATOM     11  C   UNL     1       8.919  -0.820 -16.404  1.00  0.00     0.122 C 
BRANCH  11  12
ATOM     12  C   UNL     1      10.043   0.094 -15.974  1.00  0.00     0.303 C 
ATOM     13  O   UNL     1      10.119   1.287 -16.218  1.00  0.00    -0.252 OA
BRANCH  12  14
ATOM     14  O   UNL     1      10.993  -0.562 -15.267  1.00  0.00    -0.481 OA
ATOM     15  H   UNL     1      11.067  -0.264 -14.340  1.00  0.00     0.296 HD
ENDBRANCH  12  14
ENDBRANCH  11  12
ENDBRANCH  10  11
ENDBRANCH   9  10
ENDBRANCH   8   9
ENDBRANCH   1   8
TORSDOF 11
ENDMDL
MODEL 4
REMARK VINA RESULT:      -6.2      2.849      5.262
REMARK SMILES CCCCCCCCCCCC(=O)O
REMARK SMILES IDX 7 1 6 2 5 3 4 4 3 5 2 6 1 7 8 8 9 9 10 10 11 11 12 12 13 13
REMARK SMILES IDX 14 14
REMARK H PARENT 14 15
ROOT
ATOM      1  C   UNL     1       8.108   0.268 -18.119  1.00  0.00     0.000 C 
ENDROOT
BRANCH   1   2
ATOM      2  C   UNL     1       8.142  -1.128 -18.745  1.00  0.00     0.000 C 
BRANCH   2   3
ATOM      3  C   UNL     1       6.892  -1.395 -19.583  1.00  0.00    -0.000 C 
BRANCH   3   4
ATOM      4  C   UNL     1       6.891  -2.820 -20.140  1.00  0.00    -0.000 C 
BRANCH   4   5
ATOM      5  C   UNL     1       5.650  -3.084 -20.995  1.00  0.00    -0.000 C 
BRANCH   5   6
ATOM      6  C   UNL     1       5.470  -2.002 -22.059  1.00  0.00    -0.003 C 
ATOM      7  C   UNL     1       4.498  -2.443 -23.142  1.00  0.00     0.004 C 
ENDBRANCH   5   6
ENDBRANCH   4   5
ENDBRANCH   3   4
ENDBRANCH   2   3
ENDBRANCH   1   2
BRANCH   1   8
ATOM      8  C   UNL     1       7.965   0.192 -16.599  1.00  0.00     0.000 C 
BRANCH   8   9
ATOM      9  C   UNL     1       8.958  -0.801 -15.994  1.00  0.00     0.001 C 
BRANCH   9  10
ATOM     10  C   UNL     1      10.378  -0.236 -15.991  1.00  0.00     0.012 C 
BRANCH  10  11
ATOM     11  C   UNL     1      10.457   1.072 -15.204  1.00  0.00     0.122 C 
BRANCH  11  12
ATOM     12  C   UNL     1      11.611   1.935 -15.657  1.00  0.00     0.303 C 
ATOM     13  O   UNL     1      12.793   1.671 -15.515  1.00  0.00    -0.252 OA
BRANCH  12  14
ATOM     14  O   UNL     1      11.192   3.074 -16.258  1.00  0.00    -0.481 OA
ATOM     15  H   UNL     1      11.362   3.094 -17.219  1.00  0.00     0.296 HD
ENDBRANCH  12  14
ENDBRANCH  11  12
ENDBRANCH  10  11
ENDBRANCH   9  10
ENDBRANCH   8   9
ENDBRANCH   1   8
TORSDOF 11
ENDMDL
MODEL 5
REMARK VINA RESULT:      -6.1     12.838     15.118
REMARK SMILES CCCCCCCCCCCC(=O)O
REMARK SMILES IDX 7 1 6 2 5 3 4 4 3 5 2 6 1 7 8 8 9 9 10 10 11 11 12 12 13 13
REMARK SMILES IDX 14 14
REMARK H PARENT 14 15
ROOT
ATOM      1  C   UNL     1      -1.560  -8.818 -26.445  1.00  0.00     0.000 C 
ENDROOT
BRANCH   1   2
ATOM      2  C   UNL     1      -0.238  -8.585 -27.180  1.00  0.00     0.000 C 
BRANCH   2   3
ATOM      3  C   UNL     1       0.635  -9.840 -27.169  1.00  0.00    -0.000 C 
BRANCH   3   4
ATOM      4  C   UNL     1      -0.114 -11.031 -26.570  1.00  0.00    -0.000 C 
BRANCH   4   5
ATOM      5  C   UNL     1       0.582 -11.552 -25.311  1.00  0.00    -0.000 C 
BRANCH   5   6
ATOM      6  C   UNL     1       0.755 -13.070 -25.362  1.00  0.00    -0.003 C 
ATOM      7  C   UNL     1       0.610 -13.693 -23.982  1.00  0.00     0.004 C 
ENDBRANCH   5   6
ENDBRANCH   4   5
ENDBRANCH   3   4
ENDBRANCH   2   3
ENDBRANCH   1   2
BRANCH   1   8
ATOM      8  C   UNL     1      -2.741  -8.247 -27.231  1.00  0.00     0.000 C 
BRANCH   8   9
ATOM      9  C   UNL     1      -3.342  -9.292 -28.172  1.00  0.00     0.001 C 
BRANCH   9  10
ATOM     10  C   UNL     1      -3.972 -10.446 -27.392  1.00  0.00     0.012 C 
BRANCH  10  11
ATOM     11  C   UNL     1      -5.375 -10.088 -26.902  1.00  0.00     0.122 C 
BRANCH  11  12
ATOM     12  C   UNL     1      -6.053 -11.258 -26.228  1.00  0.00     0.303 C 
ATOM     13  O   UNL     1      -6.022 -11.503 -25.033  1.00  0.00    -0.252 OA
BRANCH  12  14
ATOM     14  O   UNL     1      -6.723 -12.037 -27.109  1.00  0.00    -0.481 OA
ATOM     15  H   UNL     1      -6.179 -12.334 -27.862  1.00  0.00     0.296 HD
ENDBRANCH  12  14
ENDBRANCH  11  12
ENDBRANCH  10  11
ENDBRANCH   9  10
ENDBRANCH   8   9
ENDBRANCH   1   8
TORSDOF 11
ENDMDL
MODEL 6
REMARK VINA RESULT:      -5.9      3.200      5.794
REMARK SMILES CCCCCCCCCCCC(=O)O
REMARK SMILES IDX 7 1 6 2 5 3 4 4 3 5 2 6 1 7 8 8 9 9 10 10 11 11 12 12 13 13
REMARK SMILES IDX 14 14
REMARK H PARENT 14 15
ROOT
ATOM      1  C   UNL     1       7.505  -0.849 -16.688  1.00  0.00     0.000 C 
ENDROOT
BRANCH   1   2
ATOM      2  C   UNL     1       7.840  -0.130 -17.997  1.00  0.00     0.000 C 
BRANCH   2   3
ATOM      3  C   UNL     1       7.784  -1.087 -19.188  1.00  0.00    -0.000 C 
BRANCH   3   4
ATOM      4  C   UNL     1       6.372  -1.636 -19.392  1.00  0.00    -0.000 C 
BRANCH   4   5
ATOM      5  C   UNL     1       6.313  -2.595 -20.583  1.00  0.00    -0.000 C 
BRANCH   5   6
ATOM      6  C   UNL     1       5.717  -1.913 -21.815  1.00  0.00    -0.003 C 
ATOM      7  C   UNL     1       4.647  -2.776 -22.465  1.00  0.00     0.004 C 
ENDBRANCH   5   6
ENDBRANCH   4   5
ENDBRANCH   3   4
ENDBRANCH   2   3
ENDBRANCH   1   2
BRANCH   1   8
ATOM      8  C   UNL     1       8.755  -1.055 -15.832  1.00  0.00     0.000 C 
BRANCH   8   9
ATOM      9  C   UNL     1       9.945  -0.266 -16.381  1.00  0.00     0.001 C 
BRANCH   9  10
ATOM     10  C   UNL     1      10.505   0.696 -15.334  1.00  0.00     0.012 C 
BRANCH  10  11
ATOM     11  C   UNL     1      12.023   0.830 -15.454  1.00  0.00     0.122 C 
BRANCH  11  12
ATOM     12  C   UNL     1      12.425   2.137 -16.097  1.00  0.00     0.303 C 
ATOM     13  O   UNL     1      13.534   2.401 -16.533  1.00  0.00    -0.252 OA
BRANCH  12  14
ATOM     14  O   UNL     1      11.400   3.020 -16.145  1.00  0.00    -0.481 OA
ATOM     15  H   UNL     1      10.641   2.710 -16.673  1.00  0.00     0.296 HD
ENDBRANCH  12  14
ENDBRANCH  11  12
ENDBRANCH  10  11
ENDBRANCH   9  10
ENDBRANCH   8   9
ENDBRANCH   1   8
TORSDOF 11
ENDMDL
MODEL 7
REMARK VINA RESULT:      -5.8      3.966      6.883
REMARK SMILES CCCCCCCCCCCC(=O)O
REMARK SMILES IDX 7 1 6 2 5 3 4 4 3 5 2 6 1 7 8 8 9 9 10 10 11 11 12 12 13 13
REMARK SMILES IDX 14 14
REMARK H PARENT 14 15
ROOT
ATOM      1  C   UNL     1       8.979   0.929 -16.539  1.00  0.00     0.000 C 
ENDROOT
BRANCH   1   2
ATOM      2  C   UNL     1       7.631   0.647 -17.207  1.00  0.00     0.000 C 
BRANCH   2   3
ATOM      3  C   UNL     1       7.167  -0.786 -16.944  1.00  0.00    -0.000 C 
BRANCH   3   4
ATOM      4  C   UNL     1       6.240  -1.281 -18.056  1.00  0.00    -0.000 C 
BRANCH   4   5
ATOM      5  C   UNL     1       6.975  -1.374 -19.395  1.00  0.00    -0.000 C 
BRANCH   5   6
ATOM      6  C   UNL     1       6.553  -2.620 -20.174  1.00  0.00    -0.003 C 
ATOM      7  C   UNL     1       5.781  -2.255 -21.431  1.00  0.00     0.004 C 
ENDBRANCH   5   6
ENDBRANCH   4   5
ENDBRANCH   3   4
ENDBRANCH   2   3
ENDBRANCH   1   2
BRANCH   1   8
ATOM      8  C   UNL     1       9.738  -0.367 -16.252  1.00  0.00     0.000 C 
BRANCH   8   9
ATOM      9  C   UNL     1      11.051  -0.094 -15.517  1.00  0.00     0.001 C 
BRANCH   9  10
ATOM     10  C   UNL     1      11.510   1.351 -15.717  1.00  0.00     0.012 C 
BRANCH  10  11
ATOM     11  C   UNL     1      12.963   1.415 -16.184  1.00  0.00     0.122 C 
BRANCH  11  12
ATOM     12  C   UNL     1      13.486   2.833 -16.210  1.00  0.00     0.303 C 
ATOM     13  O   UNL     1      13.310   3.637 -17.109  1.00  0.00    -0.252 OA
BRANCH  12  14
ATOM     14  O   UNL     1      14.195   3.136 -15.097  1.00  0.00    -0.481 OA
ATOM     15  H   UNL     1      15.128   2.854 -15.139  1.00  0.00     0.296 HD
ENDBRANCH  12  14
ENDBRANCH  11  12
ENDBRANCH  10  11
ENDBRANCH   9  10
ENDBRANCH   8   9
ENDBRANCH   1   8
TORSDOF 11
ENDMDL
MODEL 8
REMARK VINA RESULT:      -5.7     12.354     14.117
REMARK SMILES CCCCCCCCCCCC(=O)O
REMARK SMILES IDX 7 1 6 2 5 3 4 4 3 5 2 6 1 7 8 8 9 9 10 10 11 11 12 12 13 13
REMARK SMILES IDX 14 14
REMARK H PARENT 14 15
ROOT
ATOM      1  C   UNL     1      -1.848 -10.377 -27.531  1.00  0.00     0.000 C 
ENDROOT
BRANCH   1   2
ATOM      2  C   UNL     1      -1.976  -8.951 -26.992  1.00  0.00     0.000 C 
BRANCH   2   3
ATOM      3  C   UNL     1      -3.426  -8.468 -27.030  1.00  0.00    -0.000 C 
BRANCH   3   4
ATOM      4  C   UNL     1      -4.353  -9.541 -27.602  1.00  0.00    -0.000 C 
BRANCH   4   5
ATOM      5  C   UNL     1      -5.631  -9.675 -26.772  1.00  0.00    -0.000 C 
BRANCH   5   6
ATOM      6  C   UNL     1      -5.589 -10.919 -25.885  1.00  0.00    -0.003 C 
ATOM      7  C   UNL     1      -6.496 -12.015 -26.421  1.00  0.00     0.004 C 
ENDBRANCH   5   6
ENDBRANCH   4   5
ENDBRANCH   3   4
ENDBRANCH   2   3
ENDBRANCH   1   2
BRANCH   1   8
ATOM      8  C   UNL     1      -0.672 -11.111 -26.886  1.00  0.00     0.000 C 
BRANCH   8   9
ATOM      9  C   UNL     1      -0.100 -10.323 -25.707  1.00  0.00     0.001 C 
BRANCH   9  10
ATOM     10  C   UNL     1       1.071 -11.063 -25.059  1.00  0.00     0.012 C 
BRANCH  10  11
ATOM     11  C   UNL     1       0.878 -12.577 -25.123  1.00  0.00     0.122 C 
BRANCH  11  12
ATOM     12  C   UNL     1       0.683 -13.181 -23.752  1.00  0.00     0.303 C 
ATOM     13  O   UNL     1      -0.066 -14.105 -23.483  1.00  0.00    -0.252 OA
BRANCH  12  14
ATOM     14  O   UNL     1       1.449 -12.575 -22.814  1.00  0.00    -0.481 OA
ATOM     15  H   UNL     1       0.959 -12.330 -22.007  1.00  0.00     0.296 HD
ENDBRANCH  12  14
ENDBRANCH  11  12
ENDBRANCH  10  11
ENDBRANCH   9  10
ENDBRANCH   8   9
ENDBRANCH   1   8
TORSDOF 11
ENDMDL
MODEL 9
REMARK VINA RESULT:      -5.5     14.035     17.110
REMARK SMILES CCCCCCCCCCCC(=O)O
REMARK SMILES IDX 7 1 6 2 5 3 4 4 3 5 2 6 1 7 8 8 9 9 10 10 11 11 12 12 13 13
REMARK SMILES IDX 14 14
REMARK H PARENT 14 15
ROOT
ATOM      1  C   UNL     1      -5.117   0.990 -31.060  1.00  0.00     0.000 C 
ENDROOT
BRANCH   1   2
ATOM      2  C   UNL     1      -4.900  -0.497 -30.767  1.00  0.00     0.000 C 
BRANCH   2   3
ATOM      3  C   UNL     1      -4.689  -0.747 -29.274  1.00  0.00    -0.000 C 
BRANCH   3   4
ATOM      4  C   UNL     1      -3.257  -1.200 -28.985  1.00  0.00    -0.000 C 
BRANCH   4   5
ATOM      5  C   UNL     1      -2.299  -0.009 -28.912  1.00  0.00    -0.000 C 
BRANCH   5   6
ATOM      6  C   UNL     1      -2.614   0.884 -27.711  1.00  0.00    -0.003 C 
ATOM      7  C   UNL     1      -2.945   2.303 -28.144  1.00  0.00     0.004 C 
ENDBRANCH   5   6
ENDBRANCH   4   5
ENDBRANCH   3   4
ENDBRANCH   2   3
ENDBRANCH   1   2
BRANCH   1   8
ATOM      8  C   UNL     1      -6.597   1.300 -31.288  1.00  0.00     0.000 C 
BRANCH   8   9
ATOM      9  C   UNL     1      -6.909   1.468 -32.776  1.00  0.00     0.001 C 
BRANCH   9  10
ATOM     10  C   UNL     1      -8.064   0.564 -33.208  1.00  0.00     0.012 C 
BRANCH  10  11
ATOM     11  C   UNL     1      -9.181   0.550 -32.166  1.00  0.00     0.122 C 
BRANCH  11  12
ATOM     12  C   UNL     1     -10.546   0.693 -32.799  1.00  0.00     0.303 C 
ATOM     13  O   UNL     1     -11.287  -0.227 -33.101  1.00  0.00    -0.252 OA
BRANCH  12  14
ATOM     14  O   UNL     1     -10.879   1.989 -33.007  1.00  0.00    -0.481 OA
ATOM     15  H   UNL     1     -10.815   2.264 -33.941  1.00  0.00     0.296 HD
ENDBRANCH  12  14
ENDBRANCH  11  12
ENDBRANCH  10  11
ENDBRANCH   9  10
ENDBRANCH   8   9
ENDBRANCH   1   8
TORSDOF 11
ENDMDL
MODEL 10
REMARK VINA RESULT:      -5.5     14.154     17.384
REMARK SMILES CCCCCCCCCCCC(=O)O
REMARK SMILES IDX 7 1 6 2 5 3 4 4 3 5 2 6 1 7 8 8 9 9 10 10 11 11 12 12 13 13
REMARK SMILES IDX 14 14
REMARK H PARENT 14 15
ROOT
ATOM      1  C   UNL     1      -5.755   1.008 -31.093  1.00  0.00     0.000 C 
ENDROOT
BRANCH   1   2
ATOM      2  C   UNL     1      -4.411   0.947 -31.822  1.00  0.00     0.000 C 
BRANCH   2   3
ATOM      3  C   UNL     1      -3.430   0.018 -31.105  1.00  0.00    -0.000 C 
BRANCH   3   4
ATOM      4  C   UNL     1      -3.027   0.583 -29.742  1.00  0.00    -0.000 C 
BRANCH   4   5
ATOM      5  C   UNL     1      -2.636  -0.532 -28.770  1.00  0.00    -0.000 C 
BRANCH   5   6
ATOM      6  C   UNL     1      -3.473  -1.789 -29.002  1.00  0.00    -0.003 C 
ATOM      7  C   UNL     1      -4.497  -1.988 -27.896  1.00  0.00     0.004 C 
ENDBRANCH   5   6
ENDBRANCH   4   5
ENDBRANCH   3   4
ENDBRANCH   2   3
ENDBRANCH   1   2
BRANCH   1   8
ATOM      8  C   UNL     1      -6.857   0.321 -31.902  1.00  0.00     0.000 C 
BRANCH   8   9
ATOM      9  C   UNL     1      -7.170   1.092 -33.185  1.00  0.00     0.001 C 
BRANCH   9  10
ATOM     10  C   UNL     1      -8.557   0.737 -33.722  1.00  0.00     0.012 C 
BRANCH  10  11
ATOM     11  C   UNL     1      -9.651   1.534 -33.013  1.00  0.00     0.122 C 
BRANCH  11  12
ATOM     12  C   UNL     1     -10.636   0.634 -32.303  1.00  0.00     0.303 C 
ATOM     13  O   UNL     1     -10.787   0.561 -31.095  1.00  0.00    -0.252 OA
BRANCH  12  14
ATOM     14  O   UNL     1     -11.362  -0.112 -33.168  1.00  0.00    -0.481 OA
ATOM     15  H   UNL     1     -10.817  -0.636 -33.786  1.00  0.00     0.296 HD
ENDBRANCH  12  14
ENDBRANCH  11  12
ENDBRANCH  10  11
ENDBRANCH   9  10
ENDBRANCH   8   9
ENDBRANCH   1   8
TORSDOF 11
ENDMDL
