MODEL 1
REMARK VINA RESULT:      -7.6      0.000      0.000
REMARK SMILES CCCCCCCCCC(=O)O
REMARK SMILES IDX 6 1 5 2 4 3 3 4 2 5 1 6 7 7 8 8 9 9 10 10 11 11 12 12
REMARK H PARENT 12 13
ROOT
ATOM      1  C   UNL     1       5.610  -1.848 -21.601  1.00  0.00     0.000 C 
ENDROOT
BRANCH   1   2
ATOM      2  C   UNL     1       6.400  -2.572 -20.509  1.00  0.00     0.000 C 
BRANCH   2   3
ATOM      3  C   UNL     1       6.462  -1.742 -19.225  1.00  0.00    -0.000 C 
BRANCH   3   4
ATOM      4  C   UNL     1       7.784  -0.981 -19.118  1.00  0.00    -0.000 C 
BRANCH   4   5
ATOM      5  C   UNL     1       7.981  -0.405 -17.715  1.00  0.00    -0.003 C 
ATOM      6  C   UNL     1       6.806  -0.733 -16.808  1.00  0.00     0.004 C 
ENDBRANCH   4   5
ENDBRANCH   3   4
ENDBRANCH   2   3
ENDBRANCH   1   2
BRANCH   1   7
ATOM      7  C   UNL     1       4.769  -2.826 -22.423  1.00  0.00     0.001 C 
BRANCH   7   8
ATOM      8  C   UNL     1       3.981  -2.100 -23.514  1.00  0.00     0.012 C 
BRANCH   8   9
ATOM      9  C   UNL     1       4.911  -1.347 -24.464  1.00  0.00     0.122 C 
BRANCH   9  10
ATOM     10  C   UNL     1       4.144  -0.614 -25.542  1.00  0.00     0.303 C 
ATOM     11  O   UNL     1       4.563  -0.353 -26.658  1.00  0.00    -0.252 OA
BRANCH  10  12
ATOM     12  O   UNL     1       2.903  -0.260 -25.134  1.00  0.00    -0.481 OA
ATOM     13  H   UNL     1       2.699  -0.527 -24.219  1.00  0.00     0.296 HD
ENDBRANCH  10  12
ENDBRANCH   9  10
ENDBRANCH   8   9
ENDBRANCH   7   8
ENDBRANCH   1   7
TORSDOF 9
ENDMDL
MODEL 2
REMARK VINA RESULT:      -7.4      3.556      6.825
REMARK SMILES CCCCCCCCCC(=O)O
REMARK SMILES IDX 6 1 5 2 4 3 3 4 2 5 1 6 7 7 8 8 9 9 10 10 11 11 12 12
REMARK H PARENT 12 13
ROOT
ATOM      1  C   UNL     1       4.013  -2.371 -23.306  1.00  0.00     0.000 C 
ENDROOT
BRANCH   1   2
ATOM      2  C   UNL     1       4.914  -1.528 -24.211  1.00  0.00     0.000 C 
BRANCH   2   3
ATOM      3  C   UNL     1       4.090  -0.660 -25.163  1.00  0.00    -0.000 C 
BRANCH   3   4
ATOM      4  C   UNL     1       4.662  -0.691 -26.581  1.00  0.00    -0.000 C 
BRANCH   4   5
ATOM      5  C   UNL     1       5.929   0.157 -26.688  1.00  0.00    -0.003 C 
ATOM      6  C   UNL     1       6.307   0.414 -28.138  1.00  0.00     0.004 C 
ENDBRANCH   4   5
ENDBRANCH   3   4
ENDBRANCH   2   3
ENDBRANCH   1   2
BRANCH   1   7
ATOM      7  C   UNL     1       4.813  -3.036 -22.185  1.00  0.00     0.001 C 
BRANCH   7   8
ATOM      8  C   UNL     1       5.795  -2.053 -21.547  1.00  0.00     0.012 C 
BRANCH   8   9
ATOM      9  C   UNL     1       6.783  -2.772 -20.629  1.00  0.00     0.122 C 
BRANCH   9  10
ATOM     10  C   UNL     1       6.409  -2.627 -19.172  1.00  0.00     0.303 C 
ATOM     11  O   UNL     1       6.324  -1.573 -18.562  1.00  0.00    -0.252 OA
BRANCH  10  12
ATOM     12  O   UNL     1       6.169  -3.822 -18.584  1.00  0.00    -0.481 OA
ATOM     13  H   UNL     1       5.468  -4.341 -19.021  1.00  0.00     0.296 HD
ENDBRANCH  10  12
ENDBRANCH   9  10
ENDBRANCH   8   9
ENDBRANCH   7   8
ENDBRANCH   1   7
TORSDOF 9
ENDMDL
MODEL 3
REMARK VINA RESULT:      -7.2      4.058      6.965
REMARK SMILES CCCCCCCCCC(=O)O
REMARK SMILES IDX 6 1 5 2 4 3 3 4 2 5 1 6 7 7 8 8 9 9 10 10 11 11 12 12
REMARK H PARENT 12 13
ROOT
ATOM      1  C   UNL     1       5.859  -1.865 -21.470  1.00  0.00     0.000 C 
ENDROOT
BRANCH   1   2
ATOM      2  C   UNL     1       4.939  -2.945 -22.043  1.00  0.00     0.000 C 
BRANCH   2   3
ATOM      3  C   UNL     1       4.183  -2.435 -23.271  1.00  0.00    -0.000 C 
BRANCH   3   4
ATOM      4  C   UNL     1       5.062  -1.522 -24.127  1.00  0.00    -0.000 C 
BRANCH   4   5
ATOM      5  C   UNL     1       4.370  -1.153 -25.439  1.00  0.00    -0.003 C 
ATOM      6  C   UNL     1       5.204  -0.180 -26.256  1.00  0.00     0.004 C 
ENDBRANCH   4   5
ENDBRANCH   3   4
ENDBRANCH   2   3
ENDBRANCH   1   2
BRANCH   1   7
ATOM      7  C   UNL     1       6.622  -2.374 -20.245  1.00  0.00     0.001 C 
BRANCH   7   8
ATOM      8  C   UNL     1       6.481  -1.412 -19.065  1.00  0.00     0.012 C 
BRANCH   8   9
ATOM      9  C   UNL     1       7.815  -0.750 -18.725  1.00  0.00     0.122 C 
BRANCH   9  10
ATOM     10  C   UNL     1       7.731   0.068 -17.456  1.00  0.00     0.303 C 
ATOM     11  O   UNL     1       6.996  -0.162 -16.510  1.00  0.00    -0.252 OA
BRANCH  10  12
ATOM     12  O   UNL     1       8.581   1.122 -17.471  1.00  0.00    -0.481 OA
ATOM     13  H   UNL     1       8.946   1.320 -18.354  1.00  0.00     0.296 HD
ENDBRANCH  10  12
ENDBRANCH   9  10
ENDBRANCH   8   9
ENDBRANCH   7   8
ENDBRANCH   1   7
TORSDOF 9
ENDMDL
MODEL 4
REMARK VINA RESULT:      -7.1      4.016      7.053
REMARK SMILES CCCCCCCCCC(=O)O
REMARK SMILES IDX 6 1 5 2 4 3 3 4 2 5 1 6 7 7 8 8 9 9 10 10 11 11 12 12
REMARK H PARENT 12 13
ROOT
ATOM      1  C   UNL     1       5.782  -2.003 -21.748  1.00  0.00     0.000 C 
ENDROOT
BRANCH   1   2
ATOM      2  C   UNL     1       4.714  -2.933 -22.328  1.00  0.00     0.000 C 
BRANCH   2   3
ATOM      3  C   UNL     1       4.022  -2.298 -23.535  1.00  0.00    -0.000 C 
BRANCH   3   4
ATOM      4  C   UNL     1       4.981  -1.399 -24.317  1.00  0.00    -0.000 C 
BRANCH   4   5
ATOM      5  C   UNL     1       4.273  -0.718 -25.490  1.00  0.00    -0.003 C 
ATOM      6  C   UNL     1       5.269  -0.146 -26.485  1.00  0.00     0.004 C 
ENDBRANCH   4   5
ENDBRANCH   3   4
ENDBRANCH   2   3
ENDBRANCH   1   2
BRANCH   1   7
ATOM      7  C   UNL     1       6.387  -2.580 -20.466  1.00  0.00     0.001 C 
BRANCH   7   8
ATOM      8  C   UNL     1       6.827  -1.470 -19.512  1.00  0.00     0.012 C 
BRANCH   8   9
ATOM      9  C   UNL     1       6.328  -1.729 -18.091  1.00  0.00     0.122 C 
BRANCH   9  10
ATOM     10  C   UNL     1       7.077  -0.901 -17.071  1.00  0.00     0.303 C 
ATOM     11  O   UNL     1       6.982   0.307 -16.930  1.00  0.00    -0.252 OA
BRANCH  10  12
ATOM     12  O   UNL     1       7.894  -1.657 -16.300  1.00  0.00    -0.481 OA
ATOM     13  H   UNL     1       8.711  -1.937 -16.752  1.00  0.00     0.296 HD
ENDBRANCH  10  12
ENDBRANCH   9  10
ENDBRANCH   8   9
ENDBRANCH   7   8
ENDBRANCH   1   7
TORSDOF 9
ENDMDL
MODEL 5
REMARK VINA RESULT:      -6.8      2.310      3.382
REMARK SMILES CCCCCCCCCC(=O)O
REMARK SMILES IDX 6 1 5 2 4 3 3 4 2 5 1 6 7 7 8 8 9 9 10 10 11 11 12 12
REMARK H PARENT 12 13
ROOT
ATOM      1  C   UNL     1       5.169  -1.435 -24.288  1.00  0.00     0.000 C 
ENDROOT
BRANCH   1   2
ATOM      2  C   UNL     1       4.662  -2.242 -23.090  1.00  0.00     0.000 C 
BRANCH   2   3
ATOM      3  C   UNL     1       5.441  -1.898 -21.820  1.00  0.00    -0.000 C 
BRANCH   3   4
ATOM      4  C   UNL     1       5.831  -3.158 -21.047  1.00  0.00    -0.000 C 
BRANCH   4   5
ATOM      5  C   UNL     1       6.633  -2.815 -19.791  1.00  0.00    -0.003 C 
ATOM      6  C   UNL     1       6.000  -3.413 -18.545  1.00  0.00     0.004 C 
ENDBRANCH   4   5
ENDBRANCH   3   4
ENDBRANCH   2   3
ENDBRANCH   1   2
BRANCH   1   7
ATOM      7  C   UNL     1       4.132  -1.396 -25.412  1.00  0.00     0.001 C 
BRANCH   7   8
ATOM      8  C   UNL     1       4.491  -0.342 -26.460  1.00  0.00     0.012 C 
BRANCH   8   9
ATOM      9  C   UNL     1       6.000  -0.116 -26.528  1.00  0.00     0.122 C 
BRANCH   9  10
ATOM     10  C   UNL     1       6.378   0.850 -27.628  1.00  0.00     0.303 C 
ATOM     11  O   UNL     1       5.976   0.807 -28.780  1.00  0.00    -0.252 OA
BRANCH  10  12
ATOM     12  O   UNL     1       7.236   1.804 -27.197  1.00  0.00    -0.481 OA
ATOM     13  H   UNL     1       6.973   2.710 -27.442  1.00  0.00     0.296 HD
ENDBRANCH  10  12
ENDBRANCH   9  10
ENDBRANCH   8   9
ENDBRANCH   7   8
ENDBRANCH   1   7
TORSDOF 9
ENDMDL
MODEL 6
REMARK VINA RESULT:      -6.5      4.856      7.572
REMARK SMILES CCCCCCCCCC(=O)O
REMARK SMILES IDX 6 1 5 2 4 3 3 4 2 5 1 6 7 7 8 8 9 9 10 10 11 11 12 12
REMARK H PARENT 12 13
ROOT
ATOM      1  C   UNL     1       6.534  -1.351 -19.099  1.00  0.00     0.000 C 
ENDROOT
BRANCH   1   2
ATOM      2  C   UNL     1       6.319  -2.832 -19.417  1.00  0.00     0.000 C 
BRANCH   2   3
ATOM      3  C   UNL     1       6.339  -3.084 -20.926  1.00  0.00    -0.000 C 
BRANCH   3   4
ATOM      4  C   UNL     1       5.597  -1.982 -21.684  1.00  0.00    -0.000 C 
BRANCH   4   5
ATOM      5  C   UNL     1       4.628  -2.569 -22.711  1.00  0.00    -0.003 C 
ATOM      6  C   UNL     1       4.701  -1.825 -24.035  1.00  0.00     0.004 C 
ENDBRANCH   4   5
ENDBRANCH   3   4
ENDBRANCH   2   3
ENDBRANCH   1   2
BRANCH   1   7
ATOM      7  C   UNL     1       8.019  -1.030 -18.918  1.00  0.00     0.001 C 
BRANCH   7   8
ATOM      8  C   UNL     1       8.216   0.189 -18.016  1.00  0.00     0.012 C 
BRANCH   8   9
ATOM      9  C   UNL     1       9.049  -0.159 -16.784  1.00  0.00     0.122 C 
BRANCH   9  10
ATOM     10  C   UNL     1       9.107   0.987 -15.799  1.00  0.00     0.303 C 
ATOM     11  O   UNL     1       9.885   1.080 -14.863  1.00  0.00    -0.252 OA
BRANCH  10  12
ATOM     12  O   UNL     1       8.177   1.934 -16.063  1.00  0.00    -0.481 OA
ATOM     13  H   UNL     1       7.260   1.603 -16.036  1.00  0.00     0.296 HD
ENDBRANCH  10  12
ENDBRANCH   9  10
ENDBRANCH   8   9
ENDBRANCH   7   8
ENDBRANCH   1   7
TORSDOF 9
ENDMDL
MODEL 7
REMARK VINA RESULT:      -6.2     12.205     13.654
REMARK SMILES CCCCCCCCCC(=O)O
REMARK SMILES IDX 6 1 5 2 4 3 3 4 2 5 1 6 7 7 8 8 9 9 10 10 11 11 12 12
REMARK H PARENT 12 13
ROOT
ATOM      1  C   UNL     1      -1.897  -9.650 -27.705  1.00  0.00     0.000 C 
ENDROOT
BRANCH   1   2
ATOM      2  C   UNL     1      -0.847  -8.828 -26.956  1.00  0.00     0.000 C 
BRANCH   2   3
ATOM      3  C   UNL     1       0.470  -9.595 -26.827  1.00  0.00    -0.000 C 
BRANCH   3   4
ATOM      4  C   UNL     1       0.464 -10.508 -25.601  1.00  0.00    -0.000 C 
BRANCH   4   5
ATOM      5  C   UNL     1       0.432 -11.983 -26.007  1.00  0.00    -0.003 C 
ATOM      6  C   UNL     1       0.881 -12.884 -24.868  1.00  0.00     0.004 C 
ENDBRANCH   4   5
ENDBRANCH   3   4
ENDBRANCH   2   3
ENDBRANCH   1   2
BRANCH   1   7
ATOM      7  C   UNL     1      -3.120  -8.802 -28.062  1.00  0.00     0.001 C 
BRANCH   7   8
ATOM      8  C   UNL     1      -4.318  -9.158 -27.181  1.00  0.00     0.012 C 
BRANCH   8   9
ATOM      9  C   UNL     1      -4.490 -10.672 -27.062  1.00  0.00     0.122 C 
BRANCH   9  10
ATOM     10  C   UNL     1      -5.783 -11.040 -26.369  1.00  0.00     0.303 C 
ATOM     11  O   UNL     1      -5.941 -11.128 -25.162  1.00  0.00    -0.252 OA
BRANCH  10  12
ATOM     12  O   UNL     1      -6.785 -11.272 -27.248  1.00  0.00    -0.481 OA
ATOM     13  H   UNL     1      -7.674 -11.231 -26.850  1.00  0.00     0.296 HD
ENDBRANCH  10  12
ENDBRANCH   9  10
ENDBRANCH   8   9
ENDBRANCH   7   8
ENDBRANCH   1   7
TORSDOF 9
ENDMDL
MODEL 8
REMARK VINA RESULT:      -5.8     11.990     14.196
REMARK SMILES CCCCCCCCCC(=O)O
REMARK SMILES IDX 6 1 5 2 4 3 3 4 2 5 1 6 7 7 8 8 9 9 10 10 11 11 12 12
REMARK H PARENT 12 13
ROOT
ATOM      1  C   UNL     1      -1.660  -8.849 -27.392  1.00  0.00     0.000 C 
ENDROOT
BRANCH   1   2
ATOM      2  C   UNL     1      -2.993  -9.145 -28.082  1.00  0.00     0.000 C 
BRANCH   2   3
ATOM      3  C   UNL     1      -3.724 -10.303 -27.401  1.00  0.00    -0.000 C 
BRANCH   3   4
ATOM      4  C   UNL     1      -5.160  -9.921 -27.042  1.00  0.00    -0.000 C 
BRANCH   4   5
ATOM      5  C   UNL     1      -5.667 -10.725 -25.843  1.00  0.00    -0.003 C 
ATOM      6  C   UNL     1      -6.387 -11.989 -26.284  1.00  0.00     0.004 C 
ENDBRANCH   4   5
ENDBRANCH   3   4
ENDBRANCH   2   3
ENDBRANCH   1   2
BRANCH   1   7
ATOM      7  C   UNL     1      -1.259  -9.980 -26.443  1.00  0.00     0.001 C 
BRANCH   7   8
ATOM      8  C   UNL     1       0.255 -10.190 -26.438  1.00  0.00     0.012 C 
BRANCH   8   9
ATOM      9  C   UNL     1       0.722 -10.844 -25.139  1.00  0.00     0.122 C 
BRANCH   9  10
ATOM     10  C   UNL     1       0.742 -12.353 -25.242  1.00  0.00     0.303 C 
ATOM     11  O   UNL     1       0.729 -12.993 -26.281  1.00  0.00    -0.252 OA
BRANCH  10  12
ATOM     12  O   UNL     1       0.774 -12.947 -24.027  1.00  0.00    -0.481 OA
ATOM     13  H   UNL     1       0.056 -12.662 -23.431  1.00  0.00     0.296 HD
ENDBRANCH  10  12
ENDBRANCH   9  10
ENDBRANCH   8   9
ENDBRANCH   7   8
ENDBRANCH   1   7
TORSDOF 9
ENDMDL
MODEL 9
REMARK VINA RESULT:      -5.7      4.292      7.245
REMARK SMILES CCCCCCCCCC(=O)O
REMARK SMILES IDX 6 1 5 2 4 3 3 4 2 5 1 6 7 7 8 8 9 9 10 10 11 11 12 12
REMARK H PARENT 12 13
ROOT
ATOM      1  C   UNL     1       6.476  -1.769 -19.327  1.00  0.00     0.000 C 
ENDROOT
BRANCH   1   2
ATOM      2  C   UNL     1       5.989  -2.646 -20.482  1.00  0.00     0.000 C 
BRANCH   2   3
ATOM      3  C   UNL     1       5.806  -1.827 -21.761  1.00  0.00    -0.000 C 
BRANCH   3   4
ATOM      4  C   UNL     1       4.728  -2.433 -22.660  1.00  0.00    -0.000 C 
BRANCH   4   5
ATOM      5  C   UNL     1       4.710  -1.764 -24.035  1.00  0.00    -0.003 C 
ATOM      6  C   UNL     1       3.307  -1.326 -24.423  1.00  0.00     0.004 C 
ENDBRANCH   4   5
ENDBRANCH   3   4
ENDBRANCH   2   3
ENDBRANCH   1   2
BRANCH   1   7
ATOM      7  C   UNL     1       6.256  -2.453 -17.976  1.00  0.00     0.001 C 
BRANCH   7   8
ATOM      8  C   UNL     1       6.013  -1.428 -16.868  1.00  0.00     0.012 C 
BRANCH   8   9
ATOM      9  C   UNL     1       7.288  -1.159 -16.070  1.00  0.00     0.122 C 
BRANCH   9  10
ATOM     10  C   UNL     1       7.892   0.186 -16.408  1.00  0.00     0.303 C 
ATOM     11  O   UNL     1       7.751   0.782 -17.463  1.00  0.00    -0.252 OA
BRANCH  10  12
ATOM     12  O   UNL     1       8.634   0.682 -15.391  1.00  0.00    -0.481 OA
ATOM     13  H   UNL     1       8.121   1.208 -14.750  1.00  0.00     0.296 HD
ENDBRANCH  10  12
ENDBRANCH   9  10
ENDBRANCH   8   9
ENDBRANCH   7   8
ENDBRANCH   1   7
TORSDOF 9
ENDMDL
MODEL 10
REMARK VINA RESULT:      -5.7      1.438      2.172
REMARK SMILES CCCCCCCCCC(=O)O
REMARK SMILES IDX 6 1 5 2 4 3 3 4 2 5 1 6 7 7 8 8 9 9 10 10 11 11 12 12
REMARK H PARENT 12 13
ROOT
ATOM      1  C   UNL     1       6.290  -1.360 -19.965  1.00  0.00     0.000 C 
ENDROOT
BRANCH   1   2
ATOM      2  C   UNL     1       6.986  -1.802 -18.676  1.00  0.00     0.000 C 
BRANCH   2   3
ATOM      3  C   UNL     1       8.208  -0.932 -18.380  1.00  0.00    -0.000 C 
BRANCH   3   4
ATOM      4  C   UNL     1       8.296  -0.583 -16.893  1.00  0.00    -0.000 C 
BRANCH   4   5
ATOM      5  C   UNL     1       9.597   0.153 -16.571  1.00  0.00    -0.003 C 
ATOM      6  C   UNL     1       9.394   1.195 -15.483  1.00  0.00     0.004 C 
ENDBRANCH   4   5
ENDBRANCH   3   4
ENDBRANCH   2   3
ENDBRANCH   1   2
BRANCH   1   7
ATOM      7  C   UNL     1       5.998  -2.552 -20.879  1.00  0.00     0.001 C 
BRANCH   7   8
ATOM      8  C   UNL     1       5.777  -2.103 -22.323  1.00  0.00     0.012 C 
BRANCH   8   9
ATOM      9  C   UNL     1       4.379  -2.478 -22.814  1.00  0.00     0.122 C 
BRANCH   9  10
ATOM     10  C   UNL     1       4.001  -1.725 -24.070  1.00  0.00     0.303 C 
ATOM     11  O   UNL     1       4.758  -1.449 -24.987  1.00  0.00    -0.252 OA
BRANCH  10  12
ATOM     12  O   UNL     1       2.695  -1.373 -24.080  1.00  0.00    -0.481 OA
ATOM     13  H   UNL     1       2.413  -0.885 -23.285  1.00  0.00     0.296 HD
ENDBRANCH  10  12
ENDBRANCH   9  10
ENDBRANCH   8   9
ENDBRANCH   7   8
ENDBRANCH   1   7
TORSDOF 9
ENDMDL
