MODEL 1
REMARK VINA RESULT:      -6.8      0.000      0.000
REMARK SMILES O=C(O)/C=C\c1ccc(O)cc1
REMARK SMILES IDX 5 1 4 2 6 3 7 4 8 5 9 6 12 7 11 8 10 9 2 11 1 12 3 13
REMARK H PARENT 10 10 3 14
ROOT
ATOM      1  C   UNL     1      -3.550  -8.828 -27.486  1.00  0.00     0.015 C 
ATOM      2  C   UNL     1      -4.826  -9.094 -27.162  1.00  0.00     0.094 C 
ENDROOT
BRANCH   1   3
ATOM      3  C   UNL     1      -2.359  -9.622 -27.173  1.00  0.00    -0.025 A 
ATOM      4  C   UNL     1      -1.447  -9.219 -26.188  1.00  0.00     0.012 A 
ATOM      5  C   UNL     1      -0.316  -9.993 -25.913  1.00  0.00     0.047 A 
ATOM      6  C   UNL     1      -0.094 -11.160 -26.635  1.00  0.00     0.115 A 
ATOM      7  C   UNL     1      -2.109 -10.790 -27.901  1.00  0.00     0.012 A 
ATOM      8  C   UNL     1      -0.979 -11.563 -27.627  1.00  0.00     0.047 A 
BRANCH   6   9
ATOM      9  O   UNL     1       0.995 -11.945 -26.399  1.00  0.00    -0.508 OA
ATOM     10  H   UNL     1       1.707 -11.682 -27.006  1.00  0.00     0.293 HD
ENDBRANCH   6   9
ENDBRANCH   1   3
BRANCH   2  11
ATOM     11  C   UNL     1      -5.386 -10.256 -26.448  1.00  0.00     0.328 C 
ATOM     12  O   UNL     1      -5.233 -11.395 -26.860  1.00  0.00    -0.247 OA
BRANCH  11  13
ATOM     13  O   UNL     1      -5.987  -9.969 -25.282  1.00  0.00    -0.478 OA
ATOM     14  H   UNL     1      -5.938  -9.028 -25.029  1.00  0.00     0.297 HD
ENDBRANCH  11  13
ENDBRANCH   2  11
TORSDOF 4
ENDMDL
MODEL 2
REMARK VINA RESULT:      -6.8      0.178      1.406
REMARK SMILES O=C(O)/C=C\c1ccc(O)cc1
REMARK SMILES IDX 5 1 4 2 6 3 7 4 8 5 9 6 12 7 11 8 10 9 2 11 1 12 3 13
REMARK H PARENT 10 10 3 14
ROOT
ATOM      1  C   UNL     1      -3.731  -8.788 -27.438  1.00  0.00     0.015 C 
ATOM      2  C   UNL     1      -4.987  -9.103 -27.083  1.00  0.00     0.094 C 
ENDROOT
BRANCH   1   3
ATOM      3  C   UNL     1      -2.510  -9.565 -27.205  1.00  0.00    -0.025 A 
ATOM      4  C   UNL     1      -2.262 -10.764 -27.887  1.00  0.00     0.012 A 
ATOM      5  C   UNL     1      -1.092 -11.488 -27.642  1.00  0.00     0.047 A 
ATOM      6  C   UNL     1      -0.179 -11.016 -26.705  1.00  0.00     0.115 A 
ATOM      7  C   UNL     1      -1.589  -9.115 -26.252  1.00  0.00     0.012 A 
ATOM      8  C   UNL     1      -0.420  -9.839 -26.007  1.00  0.00     0.047 A 
BRANCH   6   9
ATOM      9  O   UNL     1       0.974 -11.688 -26.435  1.00  0.00    -0.508 OA
ATOM     10  H   UNL     1       1.107 -11.710 -25.472  1.00  0.00     0.293 HD
ENDBRANCH   6   9
ENDBRANCH   1   3
BRANCH   2  11
ATOM     11  C   UNL     1      -5.492 -10.312 -26.407  1.00  0.00     0.328 C 
ATOM     12  O   UNL     1      -5.366 -11.420 -26.900  1.00  0.00    -0.247 OA
BRANCH  11  13
ATOM     13  O   UNL     1      -6.012 -10.103 -25.186  1.00  0.00    -0.478 OA
ATOM     14  H   UNL     1      -6.831 -10.605 -25.010  1.00  0.00     0.297 HD
ENDBRANCH  11  13
ENDBRANCH   2  11
TORSDOF 4
ENDMDL
MODEL 3
REMARK VINA RESULT:      -5.9      9.243     10.864
REMARK SMILES O=C(O)/C=C\c1ccc(O)cc1
REMARK SMILES IDX 5 1 4 2 6 3 7 4 8 5 9 6 12 7 11 8 10 9 2 11 1 12 3 13
REMARK H PARENT 10 10 3 14
ROOT
ATOM      1  C   UNL     1      -2.380  -0.266 -29.118  1.00  0.00     0.015 C 
ATOM      2  C   UNL     1      -2.616   0.224 -30.347  1.00  0.00     0.094 C 
ENDROOT
BRANCH   1   3
ATOM      3  C   UNL     1      -3.361  -0.657 -28.103  1.00  0.00    -0.025 A 
ATOM      4  C   UNL     1      -4.035  -1.884 -28.166  1.00  0.00     0.012 A 
ATOM      5  C   UNL     1      -4.969  -2.230 -27.187  1.00  0.00     0.047 A 
ATOM      6  C   UNL     1      -5.237  -1.339 -26.152  1.00  0.00     0.115 A 
ATOM      7  C   UNL     1      -3.657   0.234 -27.064  1.00  0.00     0.012 A 
ATOM      8  C   UNL     1      -4.591  -0.111 -26.086  1.00  0.00     0.047 A 
BRANCH   6   9
ATOM      9  O   UNL     1      -6.139  -1.635 -25.176  1.00  0.00    -0.508 OA
ATOM     10  H   UNL     1      -7.034  -1.594 -25.553  1.00  0.00     0.293 HD
ENDBRANCH   6   9
ENDBRANCH   1   3
BRANCH   2  11
ATOM     11  C   UNL     1      -3.903   0.466 -31.024  1.00  0.00     0.328 C 
ATOM     12  O   UNL     1      -4.648  -0.452 -31.329  1.00  0.00    -0.247 OA
BRANCH  11  13
ATOM     13  O   UNL     1      -4.222   1.760 -31.191  1.00  0.00    -0.478 OA
ATOM     14  H   UNL     1      -4.371   2.017 -32.120  1.00  0.00     0.297 HD
ENDBRANCH  11  13
ENDBRANCH   2  11
TORSDOF 4
ENDMDL
MODEL 4
REMARK VINA RESULT:      -5.9     11.942     13.552
REMARK SMILES O=C(O)/C=C\c1ccc(O)cc1
REMARK SMILES IDX 5 1 4 2 6 3 7 4 8 5 9 6 12 7 11 8 10 9 2 11 1 12 3 13
REMARK H PARENT 10 10 3 14
ROOT
ATOM      1  C   UNL     1      -8.127   0.467 -33.591  1.00  0.00     0.015 C 
ATOM      2  C   UNL     1      -9.400   0.520 -34.015  1.00  0.00     0.094 C 
ENDROOT
BRANCH   1   3
ATOM      3  C   UNL     1      -7.629   0.622 -32.221  1.00  0.00    -0.025 A 
ATOM      4  C   UNL     1      -7.445   1.887 -31.646  1.00  0.00     0.012 A 
ATOM      5  C   UNL     1      -6.964   2.007 -30.339  1.00  0.00     0.047 A 
ATOM      6  C   UNL     1      -6.654   0.859 -29.617  1.00  0.00     0.115 A 
ATOM      7  C   UNL     1      -7.295  -0.520 -31.485  1.00  0.00     0.012 A 
ATOM      8  C   UNL     1      -6.813  -0.401 -30.180  1.00  0.00     0.047 A 
BRANCH   6   9
ATOM      9  O   UNL     1      -6.183   0.929 -28.341  1.00  0.00    -0.508 OA
ATOM     10  H   UNL     1      -5.855   1.829 -28.176  1.00  0.00     0.293 HD
ENDBRANCH   6   9
ENDBRANCH   1   3
BRANCH   2  11
ATOM     11  C   UNL     1     -10.637   0.708 -33.236  1.00  0.00     0.328 C 
ATOM     12  O   UNL     1     -11.334  -0.237 -32.905  1.00  0.00    -0.247 OA
BRANCH  11  13
ATOM     13  O   UNL     1     -10.880   1.973 -32.853  1.00  0.00    -0.478 OA
ATOM     14  H   UNL     1     -11.522   2.444 -33.417  1.00  0.00     0.297 HD
ENDBRANCH  11  13
ENDBRANCH   2  11
TORSDOF 4
ENDMDL
MODEL 5
REMARK VINA RESULT:      -5.8     12.087     14.143
REMARK SMILES O=C(O)/C=C\c1ccc(O)cc1
REMARK SMILES IDX 5 1 4 2 6 3 7 4 8 5 9 6 12 7 11 8 10 9 2 11 1 12 3 13
REMARK H PARENT 10 10 3 14
ROOT
ATOM      1  C   UNL     1      -6.424   2.310 -31.184  1.00  0.00     0.015 C 
ATOM      2  C   UNL     1      -5.190   1.823 -30.974  1.00  0.00     0.094 C 
ENDROOT
BRANCH   1   3
ATOM      3  C   UNL     1      -7.531   1.674 -31.904  1.00  0.00    -0.025 A 
ATOM      4  C   UNL     1      -7.414   1.303 -33.250  1.00  0.00     0.012 A 
ATOM      5  C   UNL     1      -8.487   0.702 -33.914  1.00  0.00     0.047 A 
ATOM      6  C   UNL     1      -9.680   0.488 -33.232  1.00  0.00     0.115 A 
ATOM      7  C   UNL     1      -8.745   1.467 -31.239  1.00  0.00     0.012 A 
ATOM      8  C   UNL     1      -9.818   0.868 -31.903  1.00  0.00     0.047 A 
BRANCH   6   9
ATOM      9  O   UNL     1     -10.751  -0.094 -33.839  1.00  0.00    -0.508 OA
ATOM     10  H   UNL     1     -11.342  -0.454 -33.156  1.00  0.00     0.293 HD
ENDBRANCH   6   9
ENDBRANCH   1   3
BRANCH   2  11
ATOM     11  C   UNL     1      -4.621   0.522 -31.367  1.00  0.00     0.328 C 
ATOM     12  O   UNL     1      -5.202  -0.526 -31.137  1.00  0.00    -0.247 OA
BRANCH  11  13
ATOM     13  O   UNL     1      -3.474   0.591 -32.063  1.00  0.00    -0.478 OA
ATOM     14  H   UNL     1      -3.439   1.331 -32.699  1.00  0.00     0.297 HD
ENDBRANCH  11  13
ENDBRANCH   2  11
TORSDOF 4
ENDMDL
MODEL 6
REMARK VINA RESULT:      -5.8     15.348     17.472
REMARK SMILES O=C(O)/C=C\c1ccc(O)cc1
REMARK SMILES IDX 5 1 4 2 6 3 7 4 8 5 9 6 12 7 11 8 10 9 2 11 1 12 3 13
REMARK H PARENT 10 10 3 14
ROOT
ATOM      1  C   UNL     1       7.908   0.837 -16.691  1.00  0.00     0.015 C 
ATOM      2  C   UNL     1       9.045   0.909 -15.979  1.00  0.00     0.094 C 
ENDROOT
BRANCH   1   3
ATOM      3  C   UNL     1       7.389  -0.308 -17.442  1.00  0.00    -0.025 A 
ATOM      4  C   UNL     1       6.532  -1.247 -16.851  1.00  0.00     0.012 A 
ATOM      5  C   UNL     1       6.055  -2.333 -17.589  1.00  0.00     0.047 A 
ATOM      6  C   UNL     1       6.449  -2.485 -18.915  1.00  0.00     0.115 A 
ATOM      7  C   UNL     1       7.788  -0.487 -18.772  1.00  0.00     0.012 A 
ATOM      8  C   UNL     1       7.313  -1.574 -19.509  1.00  0.00     0.047 A 
BRANCH   6   9
ATOM      9  O   UNL     1       6.009  -3.528 -19.672  1.00  0.00    -0.508 OA
ATOM     10  H   UNL     1       5.105  -3.756 -19.396  1.00  0.00     0.293 HD
ENDBRANCH   6   9
ENDBRANCH   1   3
BRANCH   2  11
ATOM     11  C   UNL     1      10.055  -0.135 -15.725  1.00  0.00     0.328 C 
ATOM     12  O   UNL     1       9.744  -1.236 -15.302  1.00  0.00    -0.247 OA
BRANCH  11  13
ATOM     13  O   UNL     1      11.310   0.193 -16.076  1.00  0.00    -0.478 OA
ATOM     14  H   UNL     1      11.820   0.631 -15.369  1.00  0.00     0.297 HD
ENDBRANCH  11  13
ENDBRANCH   2  11
TORSDOF 4
ENDMDL
MODEL 7
REMARK VINA RESULT:      -5.7     15.383     17.238
REMARK SMILES O=C(O)/C=C\c1ccc(O)cc1
REMARK SMILES IDX 5 1 4 2 6 3 7 4 8 5 9 6 12 7 11 8 10 9 2 11 1 12 3 13
REMARK H PARENT 10 10 3 14
ROOT
ATOM      1  C   UNL     1       6.296  -1.861 -16.797  1.00  0.00     0.015 C 
ATOM      2  C   UNL     1       5.956  -2.501 -17.928  1.00  0.00     0.094 C 
ENDROOT
BRANCH   1   3
ATOM      3  C   UNL     1       7.337  -0.845 -16.617  1.00  0.00    -0.025 A 
ATOM      4  C   UNL     1       7.130   0.491 -16.986  1.00  0.00     0.012 A 
ATOM      5  C   UNL     1       8.142   1.438 -16.808  1.00  0.00     0.047 A 
ATOM      6  C   UNL     1       9.363   1.042 -16.275  1.00  0.00     0.115 A 
ATOM      7  C   UNL     1       8.579  -1.229 -16.099  1.00  0.00     0.012 A 
ATOM      8  C   UNL     1       9.590  -0.282 -15.922  1.00  0.00     0.047 A 
BRANCH   6   9
ATOM      9  O   UNL     1      10.377   1.932 -16.083  1.00  0.00    -0.508 OA
ATOM     10  H   UNL     1      10.135   2.777 -16.498  1.00  0.00     0.293 HD
ENDBRANCH   6   9
ENDBRANCH   1   3
BRANCH   2  11
ATOM     11  C   UNL     1       6.494  -2.339 -19.291  1.00  0.00     0.328 C 
ATOM     12  O   UNL     1       6.406  -1.281 -19.892  1.00  0.00    -0.247 OA
BRANCH  11  13
ATOM     13  O   UNL     1       7.156  -3.406 -19.769  1.00  0.00    -0.478 OA
ATOM     14  H   UNL     1       6.599  -4.027 -20.276  1.00  0.00     0.297 HD
ENDBRANCH  11  13
ENDBRANCH   2  11
TORSDOF 4
ENDMDL
MODEL 8
REMARK VINA RESULT:      -5.6     21.442     22.631
REMARK SMILES O=C(O)/C=C\c1ccc(O)cc1
REMARK SMILES IDX 5 1 4 2 6 3 7 4 8 5 9 6 12 7 11 8 10 9 2 11 1 12 3 13
REMARK H PARENT 10 10 3 14
ROOT
ATOM      1  C   UNL     1       9.322   8.013 -33.969  1.00  0.00     0.015 C 
ATOM      2  C   UNL     1       9.847   7.176 -33.059  1.00  0.00     0.094 C 
ENDROOT
BRANCH   1   3
ATOM      3  C   UNL     1       7.976   8.591 -33.987  1.00  0.00    -0.025 A 
ATOM      4  C   UNL     1       7.737   9.908 -33.573  1.00  0.00     0.012 A 
ATOM      5  C   UNL     1       6.442  10.434 -33.595  1.00  0.00     0.047 A 
ATOM      6  C   UNL     1       5.387   9.633 -34.019  1.00  0.00     0.115 A 
ATOM      7  C   UNL     1       6.899   7.795 -34.394  1.00  0.00     0.012 A 
ATOM      8  C   UNL     1       5.605   8.320 -34.415  1.00  0.00     0.047 A 
BRANCH   6   9
ATOM      9  O   UNL     1       4.109  10.103 -34.058  1.00  0.00    -0.508 OA
ATOM     10  H   UNL     1       3.898  10.361 -34.971  1.00  0.00     0.293 HD
ENDBRANCH   6   9
ENDBRANCH   1   3
BRANCH   2  11
ATOM     11  C   UNL     1       9.245   6.642 -31.824  1.00  0.00     0.328 C 
ATOM     12  O   UNL     1       8.611   5.599 -31.820  1.00  0.00    -0.247 OA
BRANCH  11  13
ATOM     13  O   UNL     1       9.524   7.339 -30.710  1.00  0.00    -0.478 OA
ATOM     14  H   UNL     1       8.771   7.856 -30.364  1.00  0.00     0.297 HD
ENDBRANCH  11  13
ENDBRANCH   2  11
TORSDOF 4
ENDMDL
MODEL 9
REMARK VINA RESULT:      -5.6     11.848     13.905
REMARK SMILES O=C(O)/C=C\c1ccc(O)cc1
REMARK SMILES IDX 5 1 4 2 6 3 7 4 8 5 9 6 12 7 11 8 10 9 2 11 1 12 3 13
REMARK H PARENT 10 10 3 14
ROOT
ATOM      1  C   UNL     1      -6.452   2.205 -31.323  1.00  0.00     0.015 C 
ATOM      2  C   UNL     1      -5.501   1.560 -30.628  1.00  0.00     0.094 C 
ENDROOT
BRANCH   1   3
ATOM      3  C   UNL     1      -7.642   1.635 -31.960  1.00  0.00    -0.025 A 
ATOM      4  C   UNL     1      -8.900   1.684 -31.344  1.00  0.00     0.012 A 
ATOM      5  C   UNL     1     -10.018   1.128 -31.971  1.00  0.00     0.047 A 
ATOM      6  C   UNL     1      -9.871   0.510 -33.208  1.00  0.00     0.115 A 
ATOM      7  C   UNL     1      -7.510   0.993 -33.197  1.00  0.00     0.012 A 
ATOM      8  C   UNL     1      -8.628   0.436 -33.823  1.00  0.00     0.047 A 
BRANCH   6   9
ATOM      9  O   UNL     1     -10.933  -0.045 -33.856  1.00  0.00    -0.508 OA
ATOM     10  H   UNL     1     -10.669  -0.913 -34.204  1.00  0.00     0.293 HD
ENDBRANCH   6   9
ENDBRANCH   1   3
BRANCH   2  11
ATOM     11  C   UNL     1      -5.405   0.131 -30.281  1.00  0.00     0.328 C 
ATOM     12  O   UNL     1      -4.928  -0.684 -31.053  1.00  0.00    -0.247 OA
BRANCH  11  13
ATOM     13  O   UNL     1      -5.796  -0.177 -29.033  1.00  0.00    -0.478 OA
ATOM     14  H   UNL     1      -5.403   0.388 -28.341  1.00  0.00     0.297 HD
ENDBRANCH  11  13
ENDBRANCH   2  11
TORSDOF 4
ENDMDL
MODEL 10
REMARK VINA RESULT:      -5.6     16.234     18.260
REMARK SMILES O=C(O)/C=C\c1ccc(O)cc1
REMARK SMILES IDX 5 1 4 2 6 3 7 4 8 5 9 6 12 7 11 8 10 9 2 11 1 12 3 13
REMARK H PARENT 10 10 3 14
ROOT
ATOM      1  C   UNL     1       9.059  -0.748 -15.412  1.00  0.00     0.015 C 
ATOM      2  C   UNL     1       9.636   0.372 -14.947  1.00  0.00     0.094 C 
ENDROOT
BRANCH   1   3
ATOM      3  C   UNL     1       8.288  -0.914 -16.647  1.00  0.00    -0.025 A 
ATOM      4  C   UNL     1       6.920  -1.218 -16.624  1.00  0.00     0.012 A 
ATOM      5  C   UNL     1       6.210  -1.377 -17.817  1.00  0.00     0.047 A 
ATOM      6  C   UNL     1       6.874  -1.245 -19.031  1.00  0.00     0.115 A 
ATOM      7  C   UNL     1       8.944  -0.803 -17.879  1.00  0.00     0.012 A 
ATOM      8  C   UNL     1       8.234  -0.963 -19.071  1.00  0.00     0.047 A 
BRANCH   6   9
ATOM      9  O   UNL     1       6.222  -1.390 -20.218  1.00  0.00    -0.508 OA
ATOM     10  H   UNL     1       5.691  -2.203 -20.186  1.00  0.00     0.293 HD
ENDBRANCH   6   9
ENDBRANCH   1   3
BRANCH   2  11
ATOM     11  C   UNL     1       9.692   1.715 -15.551  1.00  0.00     0.328 C 
ATOM     12  O   UNL     1      10.729   2.170 -16.005  1.00  0.00    -0.247 OA
BRANCH  11  13
ATOM     13  O   UNL     1       8.509   2.346 -15.639  1.00  0.00    -0.478 OA
ATOM     14  H   UNL     1       7.803   1.946 -15.098  1.00  0.00     0.297 HD
ENDBRANCH  11  13
ENDBRANCH   2  11
TORSDOF 4
ENDMDL
