MODEL 1
REMARK VINA RESULT:      -5.8      0.000      0.000
REMARK SMILES C=Cc1ccc(O)c(OC)c1
REMARK SMILES IDX 8 1 6 2 5 3 4 4 3 5 11 6 9 7 10 8 7 9 2 11 1 12
REMARK H PARENT 7 10
ROOT
ATOM      1  C   UNL     1       6.652  -1.065 -18.298  1.00  0.00     0.161 A 
ATOM      2  C   UNL     1       6.351  -2.236 -17.596  1.00  0.00     0.157 A 
ATOM      3  C   UNL     1       5.952  -3.393 -18.250  1.00  0.00     0.051 A 
ATOM      4  C   UNL     1       5.845  -3.387 -19.641  1.00  0.00     0.012 A 
ATOM      5  C   UNL     1       6.124  -2.223 -20.373  1.00  0.00    -0.022 A 
ATOM      6  C   UNL     1       6.542  -1.066 -19.690  1.00  0.00     0.058 A 
ENDROOT
BRANCH   1   7
ATOM      7  O   UNL     1       7.037  -0.006 -17.516  1.00  0.00    -0.493 OA
ATOM      8  C   UNL     1       8.399   0.397 -17.612  1.00  0.00     0.278 C 
ENDBRANCH   1   7
BRANCH   2   9
ATOM      9  O   UNL     1       6.450  -2.267 -16.231  1.00  0.00    -0.504 OA
ATOM     10  H   UNL     1       6.965  -3.074 -16.036  1.00  0.00     0.293 HD
ENDBRANCH   2   9
BRANCH   5  11
ATOM     11  C   UNL     1       6.052  -2.190 -21.841  1.00  0.00     0.000 C 
ATOM     12  C   UNL     1       4.917  -2.272 -22.545  1.00  0.00     0.009 C 
ENDBRANCH   5  11
TORSDOF 3
ENDMDL
MODEL 2
REMARK VINA RESULT:      -5.7     13.321     14.706
REMARK SMILES C=Cc1ccc(O)c(OC)c1
REMARK SMILES IDX 8 1 6 2 5 3 4 4 3 5 11 6 9 7 10 8 7 9 2 11 1 12
REMARK H PARENT 7 10
ROOT
ATOM      1  C   UNL     1      -1.117 -10.576 -27.298  1.00  0.00     0.161 A 
ATOM      2  C   UNL     1      -0.828  -9.211 -27.398  1.00  0.00     0.157 A 
ATOM      3  C   UNL     1      -1.835  -8.260 -27.480  1.00  0.00     0.051 A 
ATOM      4  C   UNL     1      -3.167  -8.674 -27.467  1.00  0.00     0.012 A 
ATOM      5  C   UNL     1      -3.489 -10.038 -27.384  1.00  0.00    -0.022 A 
ATOM      6  C   UNL     1      -2.452 -10.984 -27.286  1.00  0.00     0.058 A 
ENDROOT
BRANCH   1   7
ATOM      7  O   UNL     1      -0.019 -11.394 -27.219  1.00  0.00    -0.493 OA
ATOM      8  C   UNL     1       0.407 -11.766 -25.912  1.00  0.00     0.278 C 
ENDBRANCH   1   7
BRANCH   2   9
ATOM      9  O   UNL     1       0.470  -8.781 -27.411  1.00  0.00    -0.504 OA
ATOM     10  H   UNL     1       0.490  -8.063 -28.075  1.00  0.00     0.293 HD
ENDBRANCH   2   9
BRANCH   5  11
ATOM     11  C   UNL     1      -4.881 -10.507 -27.335  1.00  0.00     0.000 C 
ATOM     12  C   UNL     1      -5.566 -10.733 -26.206  1.00  0.00     0.009 C 
ENDBRANCH   5  11
TORSDOF 3
ENDMDL
MODEL 3
REMARK VINA RESULT:      -5.4     13.689     15.215
REMARK SMILES C=Cc1ccc(O)c(OC)c1
REMARK SMILES IDX 8 1 6 2 5 3 4 4 3 5 11 6 9 7 10 8 7 9 2 11 1 12
REMARK H PARENT 7 10
ROOT
ATOM      1  C   UNL     1      -4.396  -0.658 -29.976  1.00  0.00     0.161 A 
ATOM      2  C   UNL     1      -3.134  -0.394 -30.518  1.00  0.00     0.157 A 
ATOM      3  C   UNL     1      -2.091   0.080 -29.734  1.00  0.00     0.051 A 
ATOM      4  C   UNL     1      -2.309   0.304 -28.374  1.00  0.00     0.012 A 
ATOM      5  C   UNL     1      -3.569   0.065 -27.804  1.00  0.00    -0.022 A 
ATOM      6  C   UNL     1      -4.606  -0.431 -28.615  1.00  0.00     0.058 A 
ENDROOT
BRANCH   1   7
ATOM      7  O   UNL     1      -5.322  -1.128 -30.873  1.00  0.00    -0.493 OA
ATOM      8  C   UNL     1      -6.404  -0.259 -31.187  1.00  0.00     0.278 C 
ENDBRANCH   1   7
BRANCH   2   9
ATOM      9  O   UNL     1      -2.896  -0.608 -31.848  1.00  0.00    -0.504 OA
ATOM     10  H   UNL     1      -3.682  -1.092 -32.169  1.00  0.00     0.293 HD
ENDBRANCH   2   9
BRANCH   5  11
ATOM     11  C   UNL     1      -3.824   0.259 -26.370  1.00  0.00     0.000 C 
ATOM     12  C   UNL     1      -4.850  -0.285 -25.703  1.00  0.00     0.009 C 
ENDBRANCH   5  11
TORSDOF 3
ENDMDL
MODEL 4
REMARK VINA RESULT:      -5.4     12.983     14.508
REMARK SMILES C=Cc1ccc(O)c(OC)c1
REMARK SMILES IDX 8 1 6 2 5 3 4 4 3 5 11 6 9 7 10 8 7 9 2 11 1 12
REMARK H PARENT 7 10
ROOT
ATOM      1  C   UNL     1      -2.187 -10.341 -27.356  1.00  0.00     0.161 A 
ATOM      2  C   UNL     1      -1.758  -9.055 -27.701  1.00  0.00     0.157 A 
ATOM      3  C   UNL     1      -0.519  -8.572 -27.306  1.00  0.00     0.051 A 
ATOM      4  C   UNL     1       0.318  -9.385 -26.541  1.00  0.00     0.012 A 
ATOM      5  C   UNL     1      -0.091 -10.674 -26.164  1.00  0.00    -0.022 A 
ATOM      6  C   UNL     1      -1.345 -11.149 -26.589  1.00  0.00     0.058 A 
ENDROOT
BRANCH   1   7
ATOM      7  O   UNL     1      -3.431 -10.680 -27.824  1.00  0.00    -0.493 OA
ATOM      8  C   UNL     1      -4.527 -10.456 -26.943  1.00  0.00     0.278 C 
ENDBRANCH   1   7
BRANCH   2   9
ATOM      9  O   UNL     1      -2.560  -8.240 -28.452  1.00  0.00    -0.504 OA
ATOM     10  H   UNL     1      -2.288  -7.332 -28.214  1.00  0.00     0.293 HD
ENDBRANCH   2   9
BRANCH   5  11
ATOM     11  C   UNL     1       0.778 -11.569 -25.386  1.00  0.00     0.000 C 
ATOM     12  C   UNL     1       0.823 -12.899 -25.536  1.00  0.00     0.009 C 
ENDBRANCH   5  11
TORSDOF 3
ENDMDL
MODEL 5
REMARK VINA RESULT:      -5.3      1.642      2.367
REMARK SMILES C=Cc1ccc(O)c(OC)c1
REMARK SMILES IDX 8 1 6 2 5 3 4 4 3 5 11 6 9 7 10 8 7 9 2 11 1 12
REMARK H PARENT 7 10
ROOT
ATOM      1  C   UNL     1       8.392  -0.125 -17.372  1.00  0.00     0.161 A 
ATOM      2  C   UNL     1       7.671  -0.612 -16.278  1.00  0.00     0.157 A 
ATOM      3  C   UNL     1       6.563  -1.432 -16.444  1.00  0.00     0.051 A 
ATOM      4  C   UNL     1       6.156  -1.774 -17.734  1.00  0.00     0.012 A 
ATOM      5  C   UNL     1       6.849  -1.288 -18.853  1.00  0.00    -0.022 A 
ATOM      6  C   UNL     1       7.978  -0.471 -18.660  1.00  0.00     0.058 A 
ENDROOT
BRANCH   1   7
ATOM      7  O   UNL     1       9.465   0.667 -17.051  1.00  0.00    -0.493 OA
ATOM      8  C   UNL     1      10.518   0.048 -16.319  1.00  0.00     0.278 C 
ENDBRANCH   1   7
BRANCH   2   9
ATOM      9  O   UNL     1       8.052  -0.292 -15.003  1.00  0.00    -0.504 OA
ATOM     10  H   UNL     1       7.413   0.388 -14.714  1.00  0.00     0.293 HD
ENDBRANCH   2   9
BRANCH   5  11
ATOM     11  C   UNL     1       6.467  -1.654 -20.225  1.00  0.00     0.000 C 
ATOM     12  C   UNL     1       6.265  -2.909 -20.645  1.00  0.00     0.009 C 
ENDBRANCH   5  11
TORSDOF 3
ENDMDL
MODEL 6
REMARK VINA RESULT:      -5.2     13.397     13.921
REMARK SMILES C=Cc1ccc(O)c(OC)c1
REMARK SMILES IDX 8 1 6 2 5 3 4 4 3 5 11 6 9 7 10 8 7 9 2 11 1 12
REMARK H PARENT 7 10
ROOT
ATOM      1  C   UNL     1      -3.101   0.698 -28.093  1.00  0.00     0.161 A 
ATOM      2  C   UNL     1      -2.855  -0.211 -29.127  1.00  0.00     0.157 A 
ATOM      3  C   UNL     1      -3.397  -1.489 -29.115  1.00  0.00     0.051 A 
ATOM      4  C   UNL     1      -4.201  -1.878 -28.044  1.00  0.00     0.012 A 
ATOM      5  C   UNL     1      -4.453  -0.995 -26.983  1.00  0.00    -0.022 A 
ATOM      6  C   UNL     1      -3.907   0.301 -27.024  1.00  0.00     0.058 A 
ENDROOT
BRANCH   1   7
ATOM      7  O   UNL     1      -2.503   1.923 -28.247  1.00  0.00    -0.493 OA
ATOM      8  C   UNL     1      -3.363   3.021 -28.530  1.00  0.00     0.278 C 
ENDBRANCH   1   7
BRANCH   2   9
ATOM      9  O   UNL     1      -2.071   0.148 -30.189  1.00  0.00    -0.504 OA
ATOM     10  H   UNL     1      -2.227   1.106 -30.303  1.00  0.00     0.293 HD
ENDBRANCH   2   9
BRANCH   5  11
ATOM     11  C   UNL     1      -5.322  -1.360 -25.855  1.00  0.00     0.000 C 
ATOM     12  C   UNL     1      -5.537  -0.587 -24.784  1.00  0.00     0.009 C 
ENDBRANCH   5  11
TORSDOF 3
ENDMDL
MODEL 7
REMARK VINA RESULT:      -5.2     18.465     20.540
REMARK SMILES C=Cc1ccc(O)c(OC)c1
REMARK SMILES IDX 8 1 6 2 5 3 4 4 3 5 11 6 9 7 10 8 7 9 2 11 1 12
REMARK H PARENT 7 10
ROOT
ATOM      1  C   UNL     1      -9.870   0.478 -31.471  1.00  0.00     0.161 A 
ATOM      2  C   UNL     1     -10.202   0.304 -32.818  1.00  0.00     0.157 A 
ATOM      3  C   UNL     1      -9.300   0.594 -33.832  1.00  0.00     0.051 A 
ATOM      4  C   UNL     1      -8.034   1.076 -33.500  1.00  0.00     0.012 A 
ATOM      5  C   UNL     1      -7.677   1.278 -32.158  1.00  0.00    -0.022 A 
ATOM      6  C   UNL     1      -8.601   0.962 -31.146  1.00  0.00     0.058 A 
ENDROOT
BRANCH   1   7
ATOM      7  O   UNL     1     -10.862   0.143 -30.584  1.00  0.00    -0.493 OA
ATOM      8  C   UNL     1     -10.455  -0.522 -29.393  1.00  0.00     0.278 C 
ENDBRANCH   1   7
BRANCH   2   9
ATOM      9  O   UNL     1     -11.437  -0.170 -33.168  1.00  0.00    -0.504 OA
ATOM     10  H   UNL     1     -11.502  -0.014 -34.131  1.00  0.00     0.293 HD
ENDBRANCH   2   9
BRANCH   5  11
ATOM     11  C   UNL     1      -6.341   1.754 -31.771  1.00  0.00     0.000 C 
ATOM     12  C   UNL     1      -6.100   2.590 -30.753  1.00  0.00     0.009 C 
ENDBRANCH   5  11
TORSDOF 3
ENDMDL
MODEL 8
REMARK VINA RESULT:      -5.1     13.093     14.534
REMARK SMILES C=Cc1ccc(O)c(OC)c1
REMARK SMILES IDX 8 1 6 2 5 3 4 4 3 5 11 6 9 7 10 8 7 9 2 11 1 12
REMARK H PARENT 7 10
ROOT
ATOM      1  C   UNL     1      -5.239  -1.686 -27.133  1.00  0.00     0.161 A 
ATOM      2  C   UNL     1      -5.981  -2.217 -28.193  1.00  0.00     0.157 A 
ATOM      3  C   UNL     1      -5.559  -2.094 -29.509  1.00  0.00     0.051 A 
ATOM      4  C   UNL     1      -4.369  -1.420 -29.783  1.00  0.00     0.012 A 
ATOM      5  C   UNL     1      -3.610  -0.861 -28.743  1.00  0.00    -0.022 A 
ATOM      6  C   UNL     1      -4.049  -1.012 -27.415  1.00  0.00     0.058 A 
ENDROOT
BRANCH   1   7
ATOM      7  O   UNL     1      -5.779  -1.892 -25.889  1.00  0.00    -0.493 OA
ATOM      8  C   UNL     1      -5.683  -0.814 -24.965  1.00  0.00     0.278 C 
ENDBRANCH   1   7
BRANCH   2   9
ATOM      9  O   UNL     1      -7.151  -2.884 -27.949  1.00  0.00    -0.504 OA
ATOM     10  H   UNL     1      -6.916  -3.571 -27.295  1.00  0.00     0.293 HD
ENDBRANCH   2   9
BRANCH   5  11
ATOM     11  C   UNL     1      -2.336  -0.172 -28.993  1.00  0.00     0.000 C 
ATOM     12  C   UNL     1      -1.877   0.857 -28.271  1.00  0.00     0.009 C 
ENDBRANCH   5  11
TORSDOF 3
ENDMDL
MODEL 9
REMARK VINA RESULT:      -5.0     13.852     15.728
REMARK SMILES C=Cc1ccc(O)c(OC)c1
REMARK SMILES IDX 8 1 6 2 5 3 4 4 3 5 11 6 9 7 10 8 7 9 2 11 1 12
REMARK H PARENT 7 10
ROOT
ATOM      1  C   UNL     1      -5.902  -1.624 -29.806  1.00  0.00     0.161 A 
ATOM      2  C   UNL     1      -6.160  -2.170 -28.545  1.00  0.00     0.157 A 
ATOM      3  C   UNL     1      -5.227  -2.103 -27.520  1.00  0.00     0.051 A 
ATOM      4  C   UNL     1      -4.001  -1.480 -27.754  1.00  0.00     0.012 A 
ATOM      5  C   UNL     1      -3.706  -0.937 -29.014  1.00  0.00    -0.022 A 
ATOM      6  C   UNL     1      -4.673  -1.002 -30.034  1.00  0.00     0.058 A 
ENDROOT
BRANCH   1   7
ATOM      7  O   UNL     1      -6.921  -1.762 -30.715  1.00  0.00    -0.493 OA
ATOM      8  C   UNL     1      -7.362  -0.575 -31.365  1.00  0.00     0.278 C 
ENDBRANCH   1   7
BRANCH   2   9
ATOM      9  O   UNL     1      -7.356  -2.784 -28.291  1.00  0.00    -0.504 OA
ATOM     10  H   UNL     1      -7.990  -2.053 -28.160  1.00  0.00     0.293 HD
ENDBRANCH   2   9
BRANCH   5  11
ATOM     11  C   UNL     1      -2.437  -0.245 -29.286  1.00  0.00     0.000 C 
ATOM     12  C   UNL     1      -1.920   0.719 -28.515  1.00  0.00     0.009 C 
ENDBRANCH   5  11
TORSDOF 3
ENDMDL
MODEL 10
REMARK VINA RESULT:      -4.9     13.796     15.506
REMARK SMILES C=Cc1ccc(O)c(OC)c1
REMARK SMILES IDX 8 1 6 2 5 3 4 4 3 5 11 6 9 7 10 8 7 9 2 11 1 12
REMARK H PARENT 7 10
ROOT
ATOM      1  C   UNL     1      -4.283   0.263 -30.464  1.00  0.00     0.161 A 
ATOM      2  C   UNL     1      -3.478  -0.782 -29.999  1.00  0.00     0.157 A 
ATOM      3  C   UNL     1      -2.553  -0.590 -28.982  1.00  0.00     0.051 A 
ATOM      4  C   UNL     1      -2.418   0.677 -28.414  1.00  0.00     0.012 A 
ATOM      5  C   UNL     1      -3.200   1.750 -28.869  1.00  0.00    -0.022 A 
ATOM      6  C   UNL     1      -4.142   1.528 -29.890  1.00  0.00     0.058 A 
ENDROOT
BRANCH   1   7
ATOM      7  O   UNL     1      -5.153  -0.080 -31.467  1.00  0.00    -0.493 OA
ATOM      8  C   UNL     1      -6.398   0.610 -31.495  1.00  0.00     0.278 C 
ENDBRANCH   1   7
BRANCH   2   9
ATOM      9  O   UNL     1      -3.593  -2.033 -30.540  1.00  0.00    -0.504 OA
ATOM     10  H   UNL     1      -3.512  -2.643 -29.781  1.00  0.00     0.293 HD
ENDBRANCH   2   9
BRANCH   5  11
ATOM     11  C   UNL     1      -3.107   3.089 -28.271  1.00  0.00     0.000 C 
ATOM     12  C   UNL     1      -3.419   4.226 -28.906  1.00  0.00     0.009 C 
ENDBRANCH   5  11
TORSDOF 3
ENDMDL
