MODEL 1
REMARK VINA RESULT:      -7.3      0.000      0.000
REMARK SMILES CCCCCCCC(=O)O
REMARK SMILES IDX 5 1 4 2 3 3 2 4 1 5 6 6 7 7 8 8 9 9 10 10
REMARK H PARENT 10 11
ROOT
ATOM      1  C   UNL     1       4.664  -2.869 -22.460  1.00  0.00     0.001 C 
ENDROOT
BRANCH   1   2
ATOM      2  C   UNL     1       5.649  -1.951 -21.735  1.00  0.00     0.000 C 
BRANCH   2   3
ATOM      3  C   UNL     1       6.485  -2.725 -20.714  1.00  0.00    -0.000 C 
BRANCH   3   4
ATOM      4  C   UNL     1       6.429  -2.066 -19.336  1.00  0.00    -0.003 C 
ATOM      5  C   UNL     1       7.536  -1.038 -19.164  1.00  0.00     0.004 C 
ENDBRANCH   3   4
ENDBRANCH   2   3
ENDBRANCH   1   2
BRANCH   1   6
ATOM      6  C   UNL     1       3.922  -2.122 -23.569  1.00  0.00     0.012 C 
BRANCH   6   7
ATOM      7  C   UNL     1       4.891  -1.368 -24.478  1.00  0.00     0.122 C 
BRANCH   7   8
ATOM      8  C   UNL     1       4.167  -0.576 -25.542  1.00  0.00     0.303 C 
ATOM      9  O   UNL     1       4.617  -0.281 -26.637  1.00  0.00    -0.252 OA
BRANCH   8  10
ATOM     10  O   UNL     1       2.924  -0.211 -25.150  1.00  0.00    -0.481 OA
ATOM     11  H   UNL     1       2.670   0.688 -25.432  1.00  0.00     0.296 HD
ENDBRANCH   8  10
ENDBRANCH   7   8
ENDBRANCH   6   7
ENDBRANCH   1   6
TORSDOF 7
ENDMDL
MODEL 2
REMARK VINA RESULT:      -6.7      3.397      5.680
REMARK SMILES CCCCCCCC(=O)O
REMARK SMILES IDX 5 1 4 2 3 3 2 4 1 5 6 6 7 7 8 8 9 9 10 10
REMARK H PARENT 10 11
ROOT
ATOM      1  C   UNL     1       4.347  -2.748 -22.953  1.00  0.00     0.001 C 
ENDROOT
BRANCH   1   2
ATOM      2  C   UNL     1       3.901  -1.821 -24.085  1.00  0.00     0.000 C 
BRANCH   2   3
ATOM      3  C   UNL     1       5.099  -1.148 -24.760  1.00  0.00    -0.000 C 
BRANCH   3   4
ATOM      4  C   UNL     1       4.680  -0.427 -26.041  1.00  0.00    -0.003 C 
ATOM      5  C   UNL     1       5.883   0.136 -26.781  1.00  0.00     0.004 C 
ENDBRANCH   3   4
ENDBRANCH   2   3
ENDBRANCH   1   2
BRANCH   1   6
ATOM      6  C   UNL     1       5.417  -2.087 -22.083  1.00  0.00     0.012 C 
BRANCH   6   7
ATOM      7  C   UNL     1       5.805  -2.978 -20.904  1.00  0.00     0.122 C 
BRANCH   7   8
ATOM      8  C   UNL     1       6.700  -2.258 -19.923  1.00  0.00     0.303 C 
ATOM      9  O   UNL     1       6.379  -1.297 -19.243  1.00  0.00    -0.252 OA
BRANCH   8  10
ATOM     10  O   UNL     1       7.939  -2.801 -19.868  1.00  0.00    -0.481 OA
ATOM     11  H   UNL     1       8.299  -2.870 -18.963  1.00  0.00     0.296 HD
ENDBRANCH   8  10
ENDBRANCH   7   8
ENDBRANCH   6   7
ENDBRANCH   1   6
TORSDOF 7
ENDMDL
MODEL 3
REMARK VINA RESULT:      -6.6      1.932      2.984
REMARK SMILES CCCCCCCC(=O)O
REMARK SMILES IDX 5 1 4 2 3 3 2 4 1 5 6 6 7 7 8 8 9 9 10 10
REMARK H PARENT 10 11
ROOT
ATOM      1  C   UNL     1       5.120  -1.401 -24.446  1.00  0.00     0.001 C 
ENDROOT
BRANCH   1   2
ATOM      2  C   UNL     1       3.962  -2.097 -23.729  1.00  0.00     0.000 C 
BRANCH   2   3
ATOM      3  C   UNL     1       4.454  -2.899 -22.522  1.00  0.00    -0.000 C 
BRANCH   3   4
ATOM      4  C   UNL     1       5.575  -2.163 -21.787  1.00  0.00    -0.003 C 
ATOM      5  C   UNL     1       6.174  -3.020 -20.684  1.00  0.00     0.004 C 
ENDBRANCH   3   4
ENDBRANCH   2   3
ENDBRANCH   1   2
BRANCH   1   6
ATOM      6  C   UNL     1       4.684  -0.857 -25.806  1.00  0.00     0.012 C 
BRANCH   6   7
ATOM      7  C   UNL     1       5.516   0.359 -26.213  1.00  0.00     0.122 C 
BRANCH   7   8
ATOM      8  C   UNL     1       6.197   0.155 -27.546  1.00  0.00     0.303 C 
ATOM      9  O   UNL     1       5.688   0.340 -28.639  1.00  0.00    -0.252 OA
BRANCH   8  10
ATOM     10  O   UNL     1       7.476  -0.268 -27.407  1.00  0.00    -0.481 OA
ATOM     11  H   UNL     1       7.923  -0.457 -28.254  1.00  0.00     0.296 HD
ENDBRANCH   8  10
ENDBRANCH   7   8
ENDBRANCH   6   7
ENDBRANCH   1   6
TORSDOF 7
ENDMDL
MODEL 4
REMARK VINA RESULT:      -6.6      4.007      5.994
REMARK SMILES CCCCCCCC(=O)O
REMARK SMILES IDX 5 1 4 2 3 3 2 4 1 5 6 6 7 7 8 8 9 9 10 10
REMARK H PARENT 10 11
ROOT
ATOM      1  C   UNL     1       5.402  -3.165 -21.352  1.00  0.00     0.001 C 
ENDROOT
BRANCH   1   2
ATOM      2  C   UNL     1       5.336  -1.922 -22.240  1.00  0.00     0.000 C 
BRANCH   2   3
ATOM      3  C   UNL     1       4.520  -2.185 -23.508  1.00  0.00    -0.000 C 
BRANCH   3   4
ATOM      4  C   UNL     1       4.956  -1.265 -24.648  1.00  0.00    -0.003 C 
ATOM      5  C   UNL     1       3.781  -0.883 -25.535  1.00  0.00     0.004 C 
ENDBRANCH   3   4
ENDBRANCH   2   3
ENDBRANCH   1   2
BRANCH   1   6
ATOM      6  C   UNL     1       6.387  -2.972 -20.198  1.00  0.00     0.012 C 
BRANCH   6   7
ATOM      7  C   UNL     1       6.526  -1.496 -19.826  1.00  0.00     0.122 C 
BRANCH   7   8
ATOM      8  C   UNL     1       6.732  -1.306 -18.341  1.00  0.00     0.303 C 
ATOM      9  O   UNL     1       7.122  -0.283 -17.804  1.00  0.00    -0.252 OA
BRANCH   8  10
ATOM     10  O   UNL     1       6.429  -2.422 -17.636  1.00  0.00    -0.481 OA
ATOM     11  H   UNL     1       5.938  -2.246 -16.812  1.00  0.00     0.296 HD
ENDBRANCH   8  10
ENDBRANCH   7   8
ENDBRANCH   6   7
ENDBRANCH   1   6
TORSDOF 7
ENDMDL
MODEL 5
REMARK VINA RESULT:      -6.4      4.520      6.588
REMARK SMILES CCCCCCCC(=O)O
REMARK SMILES IDX 5 1 4 2 3 3 2 4 1 5 6 6 7 7 8 8 9 9 10 10
REMARK H PARENT 10 11
ROOT
ATOM      1  C   UNL     1       6.963  -2.654 -20.076  1.00  0.00     0.001 C 
ENDROOT
BRANCH   1   2
ATOM      2  C   UNL     1       5.809  -3.065 -20.990  1.00  0.00     0.000 C 
BRANCH   2   3
ATOM      3  C   UNL     1       5.511  -1.986 -22.033  1.00  0.00    -0.000 C 
BRANCH   3   4
ATOM      4  C   UNL     1       4.468  -2.463 -23.044  1.00  0.00    -0.003 C 
ATOM      5  C   UNL     1       4.554  -1.681 -24.344  1.00  0.00     0.004 C 
ENDBRANCH   3   4
ENDBRANCH   2   3
ENDBRANCH   1   2
BRANCH   1   6
ATOM      6  C   UNL     1       6.703  -1.293 -19.431  1.00  0.00     0.012 C 
BRANCH   6   7
ATOM      7  C   UNL     1       7.962  -0.743 -18.763  1.00  0.00     0.122 C 
BRANCH   7   8
ATOM      8  C   UNL     1       7.827  -0.693 -17.258  1.00  0.00     0.303 C 
ATOM      9  O   UNL     1       6.934  -0.134 -16.645  1.00  0.00    -0.252 OA
BRANCH   8  10
ATOM     10  O   UNL     1       8.830  -1.353 -16.633  1.00  0.00    -0.481 OA
ATOM     11  H   UNL     1       9.631  -1.461 -17.181  1.00  0.00     0.296 HD
ENDBRANCH   8  10
ENDBRANCH   7   8
ENDBRANCH   6   7
ENDBRANCH   1   6
TORSDOF 7
ENDMDL
MODEL 6
REMARK VINA RESULT:      -6.4      1.233      2.267
REMARK SMILES CCCCCCCC(=O)O
REMARK SMILES IDX 5 1 4 2 3 3 2 4 1 5 6 6 7 7 8 8 9 9 10 10
REMARK H PARENT 10 11
ROOT
ATOM      1  C   UNL     1       6.115  -3.210 -20.985  1.00  0.00     0.001 C 
ENDROOT
BRANCH   1   2
ATOM      2  C   UNL     1       6.330  -2.722 -19.551  1.00  0.00     0.000 C 
BRANCH   2   3
ATOM      3  C   UNL     1       6.960  -1.329 -19.524  1.00  0.00    -0.000 C 
BRANCH   3   4
ATOM      4  C   UNL     1       7.100  -0.811 -18.092  1.00  0.00    -0.003 C 
ATOM      5  C   UNL     1       8.318   0.086 -17.940  1.00  0.00     0.004 C 
ENDBRANCH   3   4
ENDBRANCH   2   3
ENDBRANCH   1   2
BRANCH   1   6
ATOM      6  C   UNL     1       5.455  -2.132 -21.844  1.00  0.00     0.012 C 
BRANCH   6   7
ATOM      7  C   UNL     1       4.443  -2.736 -22.817  1.00  0.00     0.122 C 
BRANCH   7   8
ATOM      8  C   UNL     1       4.101  -1.784 -23.939  1.00  0.00     0.303 C 
ATOM      9  O   UNL     1       2.974  -1.462 -24.277  1.00  0.00    -0.252 OA
BRANCH   8  10
ATOM     10  O   UNL     1       5.206  -1.305 -24.557  1.00  0.00    -0.481 OA
ATOM     11  H   UNL     1       6.023  -1.397 -24.031  1.00  0.00     0.296 HD
ENDBRANCH   8  10
ENDBRANCH   7   8
ENDBRANCH   6   7
ENDBRANCH   1   6
TORSDOF 7
ENDMDL
MODEL 7
REMARK VINA RESULT:      -5.9      5.128      7.114
REMARK SMILES CCCCCCCC(=O)O
REMARK SMILES IDX 5 1 4 2 3 3 2 4 1 5 6 6 7 7 8 8 9 9 10 10
REMARK H PARENT 10 11
ROOT
ATOM      1  C   UNL     1       6.784  -1.377 -19.537  1.00  0.00     0.001 C 
ENDROOT
BRANCH   1   2
ATOM      2  C   UNL     1       6.939  -2.815 -20.032  1.00  0.00     0.000 C 
BRANCH   2   3
ATOM      3  C   UNL     1       5.813  -3.197 -20.996  1.00  0.00    -0.000 C 
BRANCH   3   4
ATOM      4  C   UNL     1       5.555  -2.088 -22.016  1.00  0.00    -0.003 C 
ATOM      5  C   UNL     1       4.468  -2.481 -23.003  1.00  0.00     0.004 C 
ENDBRANCH   3   4
ENDBRANCH   2   3
ENDBRANCH   1   2
BRANCH   1   6
ATOM      6  C   UNL     1       8.023  -0.919 -18.766  1.00  0.00     0.012 C 
BRANCH   6   7
ATOM      7  C   UNL     1       7.668   0.133 -17.716  1.00  0.00     0.122 C 
BRANCH   7   8
ATOM      8  C   UNL     1       8.208  -0.228 -16.351  1.00  0.00     0.303 C 
ATOM      9  O   UNL     1       8.459  -1.357 -15.963  1.00  0.00    -0.252 OA
BRANCH   8  10
ATOM     10  O   UNL     1       8.393   0.863 -15.571  1.00  0.00    -0.481 OA
ATOM     11  H   UNL     1       8.417   1.703 -16.067  1.00  0.00     0.296 HD
ENDBRANCH   8  10
ENDBRANCH   7   8
ENDBRANCH   6   7
ENDBRANCH   1   6
TORSDOF 7
ENDMDL
MODEL 8
REMARK VINA RESULT:      -5.6     11.078     12.851
REMARK SMILES CCCCCCCC(=O)O
REMARK SMILES IDX 5 1 4 2 3 3 2 4 1 5 6 6 7 7 8 8 9 9 10 10
REMARK H PARENT 10 11
ROOT
ATOM      1  C   UNL     1      -1.863 -10.280 -27.780  1.00  0.00     0.001 C 
ENDROOT
BRANCH   1   2
ATOM      2  C   UNL     1      -3.051  -9.423 -28.220  1.00  0.00     0.000 C 
BRANCH   2   3
ATOM      3  C   UNL     1      -3.800  -8.847 -27.016  1.00  0.00    -0.000 C 
BRANCH   3   4
ATOM      4  C   UNL     1      -5.266  -9.279 -27.017  1.00  0.00    -0.003 C 
ATOM      5  C   UNL     1      -5.420 -10.731 -26.594  1.00  0.00     0.004 C 
ENDBRANCH   3   4
ENDBRANCH   2   3
ENDBRANCH   1   2
BRANCH   1   6
ATOM      6  C   UNL     1      -1.196  -9.705 -26.529  1.00  0.00     0.012 C 
BRANCH   6   7
ATOM      7  C   UNL     1       0.306  -9.983 -26.521  1.00  0.00     0.122 C 
BRANCH   7   8
ATOM      8  C   UNL     1       0.636 -11.276 -25.812  1.00  0.00     0.303 C 
ATOM      9  O   UNL     1       0.477 -12.396 -26.268  1.00  0.00    -0.252 OA
BRANCH   8  10
ATOM     10  O   UNL     1       1.146 -11.065 -24.575  1.00  0.00    -0.481 OA
ATOM     11  H   UNL     1       0.934 -11.772 -23.936  1.00  0.00     0.296 HD
ENDBRANCH   8  10
ENDBRANCH   7   8
ENDBRANCH   6   7
ENDBRANCH   1   6
TORSDOF 7
ENDMDL
MODEL 9
REMARK VINA RESULT:      -5.6     11.773     13.126
REMARK SMILES CCCCCCCC(=O)O
REMARK SMILES IDX 5 1 4 2 3 3 2 4 1 5 6 6 7 7 8 8 9 9 10 10
REMARK H PARENT 10 11
ROOT
ATOM      1  C   UNL     1      -3.033  -8.801 -27.679  1.00  0.00     0.001 C 
ENDROOT
BRANCH   1   2
ATOM      2  C   UNL     1      -1.561  -9.215 -27.713  1.00  0.00     0.000 C 
BRANCH   2   3
ATOM      3  C   UNL     1      -1.092  -9.721 -26.348  1.00  0.00    -0.000 C 
BRANCH   3   4
ATOM      4  C   UNL     1       0.337 -10.261 -26.417  1.00  0.00    -0.003 C 
ATOM      5  C   UNL     1       0.718 -10.995 -25.142  1.00  0.00     0.004 C 
ENDBRANCH   3   4
ENDBRANCH   2   3
ENDBRANCH   1   2
BRANCH   1   6
ATOM      6  C   UNL     1      -3.952 -10.023 -27.634  1.00  0.00     0.012 C 
BRANCH   6   7
ATOM      7  C   UNL     1      -5.291  -9.689 -26.979  1.00  0.00     0.122 C 
BRANCH   7   8
ATOM      8  C   UNL     1      -5.925 -10.902 -26.340  1.00  0.00     0.303 C 
ATOM      9  O   UNL     1      -6.005 -11.113 -25.141  1.00  0.00    -0.252 OA
BRANCH   8  10
ATOM     10  O   UNL     1      -6.416 -11.766 -27.260  1.00  0.00    -0.481 OA
ATOM     11  H   UNL     1      -6.525 -12.677 -26.926  1.00  0.00     0.296 HD
ENDBRANCH   8  10
ENDBRANCH   7   8
ENDBRANCH   6   7
ENDBRANCH   1   6
TORSDOF 7
ENDMDL
MODEL 10
REMARK VINA RESULT:      -5.2      5.654      7.679
REMARK SMILES CCCCCCCC(=O)O
REMARK SMILES IDX 5 1 4 2 3 3 2 4 1 5 6 6 7 7 8 8 9 9 10 10
REMARK H PARENT 10 11
ROOT
ATOM      1  C   UNL     1       7.787  -0.729 -19.108  1.00  0.00     0.001 C 
ENDROOT
BRANCH   1   2
ATOM      2  C   UNL     1       6.449  -1.357 -18.717  1.00  0.00     0.000 C 
BRANCH   2   3
ATOM      3  C   UNL     1       6.343  -2.799 -19.216  1.00  0.00    -0.000 C 
BRANCH   3   4
ATOM      4  C   UNL     1       6.710  -2.903 -20.697  1.00  0.00    -0.003 C 
ATOM      5  C   UNL     1       5.592  -2.380 -21.586  1.00  0.00     0.004 C 
ENDBRANCH   3   4
ENDBRANCH   2   3
ENDBRANCH   1   2
BRANCH   1   6
ATOM      6  C   UNL     1       8.344   0.140 -17.979  1.00  0.00     0.012 C 
BRANCH   6   7
ATOM      7  C   UNL     1       7.894  -0.369 -16.611  1.00  0.00     0.122 C 
BRANCH   7   8
ATOM      8  C   UNL     1       9.042  -0.954 -15.821  1.00  0.00     0.303 C 
ATOM      9  O   UNL     1       8.969  -1.904 -15.060  1.00  0.00    -0.252 OA
BRANCH   8  10
ATOM     10  O   UNL     1      10.204  -0.296 -16.047  1.00  0.00    -0.481 OA
ATOM     11  H   UNL     1      10.241   0.589 -15.638  1.00  0.00     0.296 HD
ENDBRANCH   8  10
ENDBRANCH   7   8
ENDBRANCH   6   7
ENDBRANCH   1   6
TORSDOF 7
ENDMDL
