MODEL 1
REMARK VINA RESULT:      -5.3      0.000      0.000
REMARK SMILES Cc1ccccc1C
REMARK SMILES IDX 1 1 2 2 3 3 4 4 5 5 6 6 7 7 8 8
REMARK H PARENT
ROOT
ATOM      1  C   UNL     1      -5.010  -2.341 -27.655  1.00  0.00     0.044 C 
ATOM      2  C   UNL     1      -4.030  -1.216 -27.839  1.00  0.00    -0.048 A 
ATOM      3  C   UNL     1      -3.185  -1.218 -28.961  1.00  0.00     0.003 A 
ATOM      4  C   UNL     1      -2.264  -0.189 -29.163  1.00  0.00     0.000 A 
ATOM      5  C   UNL     1      -2.177   0.854 -28.246  1.00  0.00     0.000 A 
ATOM      6  C   UNL     1      -3.008   0.868 -27.127  1.00  0.00     0.003 A 
ATOM      7  C   UNL     1      -3.939  -0.160 -26.910  1.00  0.00    -0.048 A 
ATOM      8  C   UNL     1      -4.819  -0.110 -25.691  1.00  0.00     0.044 C 
ENDROOT
TORSDOF 0
ENDMDL
MODEL 2
REMARK VINA RESULT:      -5.3      0.025      2.266
REMARK SMILES Cc1ccccc1C
REMARK SMILES IDX 1 1 2 2 3 3 4 4 5 5 6 6 7 7 8 8
REMARK H PARENT
ROOT
ATOM      1  C   UNL     1      -4.848  -0.110 -25.686  1.00  0.00     0.044 C 
ATOM      2  C   UNL     1      -3.961  -0.164 -26.898  1.00  0.00    -0.048 A 
ATOM      3  C   UNL     1      -3.023   0.861 -27.109  1.00  0.00     0.003 A 
ATOM      4  C   UNL     1      -2.184   0.842 -28.224  1.00  0.00     0.000 A 
ATOM      5  C   UNL     1      -2.271  -0.201 -29.141  1.00  0.00     0.000 A 
ATOM      6  C   UNL     1      -3.198  -1.224 -28.945  1.00  0.00     0.003 A 
ATOM      7  C   UNL     1      -4.050  -1.219 -27.830  1.00  0.00    -0.048 A 
ATOM      8  C   UNL     1      -5.038  -2.339 -27.652  1.00  0.00     0.044 C 
ENDROOT
TORSDOF 0
ENDMDL
MODEL 3
REMARK VINA RESULT:      -5.0     13.596     14.248
REMARK SMILES Cc1ccccc1C
REMARK SMILES IDX 1 1 2 2 3 3 4 4 5 5 6 6 7 7 8 8
REMARK H PARENT
ROOT
ATOM      1  C   UNL     1       7.032  -2.656 -20.463  1.00  0.00     0.044 C 
ATOM      2  C   UNL     1       7.009  -1.912 -19.157  1.00  0.00    -0.048 A 
ATOM      3  C   UNL     1       7.690  -0.688 -19.051  1.00  0.00     0.003 A 
ATOM      4  C   UNL     1       7.689   0.028 -17.854  1.00  0.00     0.000 A 
ATOM      5  C   UNL     1       7.007  -0.469 -16.748  1.00  0.00     0.000 A 
ATOM      6  C   UNL     1       6.327  -1.683 -16.838  1.00  0.00     0.003 A 
ATOM      7  C   UNL     1       6.320  -2.416 -18.035  1.00  0.00    -0.048 A 
ATOM      8  C   UNL     1       5.576  -3.722 -18.094  1.00  0.00     0.044 C 
ENDROOT
TORSDOF 0
ENDMDL
MODEL 4
REMARK VINA RESULT:      -5.0      0.885      2.792
REMARK SMILES Cc1ccccc1C
REMARK SMILES IDX 1 1 2 2 3 3 4 4 5 5 6 6 7 7 8 8
REMARK H PARENT
ROOT
ATOM      1  C   UNL     1      -1.877  -0.053 -29.957  1.00  0.00     0.044 C 
ATOM      2  C   UNL     1      -2.843  -0.462 -28.881  1.00  0.00    -0.048 A 
ATOM      3  C   UNL     1      -3.443  -1.731 -28.941  1.00  0.00     0.003 A 
ATOM      4  C   UNL     1      -4.343  -2.142 -27.958  1.00  0.00     0.000 A 
ATOM      5  C   UNL     1      -4.655  -1.291 -26.903  1.00  0.00     0.000 A 
ATOM      6  C   UNL     1      -4.068  -0.028 -26.830  1.00  0.00     0.003 A 
ATOM      7  C   UNL     1      -3.161   0.400 -27.812  1.00  0.00    -0.048 A 
ATOM      8  C   UNL     1      -2.549   1.770 -27.700  1.00  0.00     0.044 C 
ENDROOT
TORSDOF 0
ENDMDL
MODEL 5
REMARK VINA RESULT:      -5.0      0.965      3.468
REMARK SMILES Cc1ccccc1C
REMARK SMILES IDX 1 1 2 2 3 3 4 4 5 5 6 6 7 7 8 8
REMARK H PARENT
ROOT
ATOM      1  C   UNL     1      -2.070   0.412 -29.031  1.00  0.00     0.044 C 
ATOM      2  C   UNL     1      -3.119  -0.233 -28.170  1.00  0.00    -0.048 A 
ATOM      3  C   UNL     1      -3.503   0.391 -26.971  1.00  0.00     0.003 A 
ATOM      4  C   UNL     1      -4.474  -0.181 -26.148  1.00  0.00     0.000 A 
ATOM      5  C   UNL     1      -5.074  -1.381 -26.513  1.00  0.00     0.000 A 
ATOM      6  C   UNL     1      -4.703  -2.013 -27.700  1.00  0.00     0.003 A 
ATOM      7  C   UNL     1      -3.727  -1.451 -28.538  1.00  0.00    -0.048 A 
ATOM      8  C   UNL     1      -3.351  -2.161 -29.810  1.00  0.00     0.044 C 
ENDROOT
TORSDOF 0
ENDMDL
MODEL 6
REMARK VINA RESULT:      -4.8      8.492      9.905
REMARK SMILES Cc1ccccc1C
REMARK SMILES IDX 1 1 2 2 3 3 4 4 5 5 6 6 7 7 8 8
REMARK H PARENT
ROOT
ATOM      1  C   UNL     1      -0.832 -12.063 -27.744  1.00  0.00     0.044 C 
ATOM      2  C   UNL     1      -1.451 -10.725 -27.453  1.00  0.00    -0.048 A 
ATOM      3  C   UNL     1      -2.630 -10.353 -28.121  1.00  0.00     0.003 A 
ATOM      4  C   UNL     1      -3.231  -9.118 -27.874  1.00  0.00     0.000 A 
ATOM      5  C   UNL     1      -2.662  -8.240 -26.957  1.00  0.00     0.000 A 
ATOM      6  C   UNL     1      -1.491  -8.595 -26.288  1.00  0.00     0.003 A 
ATOM      7  C   UNL     1      -0.874  -9.833 -26.525  1.00  0.00    -0.048 A 
ATOM      8  C   UNL     1       0.388 -10.181 -25.785  1.00  0.00     0.044 C 
ENDROOT
TORSDOF 0
ENDMDL
MODEL 7
REMARK VINA RESULT:      -4.8     13.389     14.086
REMARK SMILES Cc1ccccc1C
REMARK SMILES IDX 1 1 2 2 3 3 4 4 5 5 6 6 7 7 8 8
REMARK H PARENT
ROOT
ATOM      1  C   UNL     1       7.852   0.224 -18.011  1.00  0.00     0.044 C 
ATOM      2  C   UNL     1       7.187  -1.033 -18.497  1.00  0.00    -0.048 A 
ATOM      3  C   UNL     1       7.243  -1.356 -19.863  1.00  0.00     0.003 A 
ATOM      4  C   UNL     1       6.636  -2.515 -20.348  1.00  0.00     0.000 A 
ATOM      5  C   UNL     1       5.967  -3.366 -19.475  1.00  0.00     0.000 A 
ATOM      6  C   UNL     1       5.902  -3.058 -18.116  1.00  0.00     0.003 A 
ATOM      7  C   UNL     1       6.507  -1.895 -17.613  1.00  0.00    -0.048 A 
ATOM      8  C   UNL     1       6.415  -1.595 -16.142  1.00  0.00     0.044 C 
ENDROOT
TORSDOF 0
ENDMDL
MODEL 8
REMARK VINA RESULT:      -4.8      8.429     10.104
REMARK SMILES Cc1ccccc1C
REMARK SMILES IDX 1 1 2 2 3 3 4 4 5 5 6 6 7 7 8 8
REMARK H PARENT
ROOT
ATOM      1  C   UNL     1       0.391 -10.003 -25.884  1.00  0.00     0.044 C 
ATOM      2  C   UNL     1      -0.919  -9.741 -26.573  1.00  0.00    -0.048 A 
ATOM      3  C   UNL     1      -1.584  -8.525 -26.344  1.00  0.00     0.003 A 
ATOM      4  C   UNL     1      -2.801  -8.249 -26.967  1.00  0.00     0.000 A 
ATOM      5  C   UNL     1      -3.369  -9.183 -27.826  1.00  0.00     0.000 A 
ATOM      6  C   UNL     1      -2.721 -10.395 -28.063  1.00  0.00     0.003 A 
ATOM      7  C   UNL     1      -1.496 -10.688 -27.443  1.00  0.00    -0.048 A 
ATOM      8  C   UNL     1      -0.826 -12.006 -27.721  1.00  0.00     0.044 C 
ENDROOT
TORSDOF 0
ENDMDL
MODEL 9
REMARK VINA RESULT:      -4.7      0.935      2.709
REMARK SMILES Cc1ccccc1C
REMARK SMILES IDX 1 1 2 2 3 3 4 4 5 5 6 6 7 7 8 8
REMARK H PARENT
ROOT
ATOM      1  C   UNL     1      -4.178   0.108 -25.957  1.00  0.00     0.044 C 
ATOM      2  C   UNL     1      -3.976  -0.484 -27.324  1.00  0.00    -0.048 A 
ATOM      3  C   UNL     1      -4.812  -1.529 -27.751  1.00  0.00     0.003 A 
ATOM      4  C   UNL     1      -4.651  -2.101 -29.013  1.00  0.00     0.000 A 
ATOM      5  C   UNL     1      -3.654  -1.635 -29.864  1.00  0.00     0.000 A 
ATOM      6  C   UNL     1      -2.816  -0.599 -29.454  1.00  0.00     0.003 A 
ATOM      7  C   UNL     1      -2.964  -0.014 -28.187  1.00  0.00    -0.048 A 
ATOM      8  C   UNL     1      -2.041   1.101 -27.778  1.00  0.00     0.044 C 
ENDROOT
TORSDOF 0
ENDMDL
MODEL 10
REMARK VINA RESULT:      -4.7     15.077     16.301
REMARK SMILES Cc1ccccc1C
REMARK SMILES IDX 1 1 2 2 3 3 4 4 5 5 6 6 7 7 8 8
REMARK H PARENT
ROOT
ATOM      1  C   UNL     1       5.212  10.394 -33.571  1.00  0.00     0.044 C 
ATOM      2  C   UNL     1       6.558   9.766 -33.803  1.00  0.00    -0.048 A 
ATOM      3  C   UNL     1       6.629   8.422 -34.207  1.00  0.00     0.003 A 
ATOM      4  C   UNL     1       7.861   7.809 -34.431  1.00  0.00     0.000 A 
ATOM      5  C   UNL     1       9.038   8.530 -34.255  1.00  0.00     0.000 A 
ATOM      6  C   UNL     1       8.983   9.864 -33.854  1.00  0.00     0.003 A 
ATOM      7  C   UNL     1       7.751  10.495 -33.623  1.00  0.00    -0.048 A 
ATOM      8  C   UNL     1       7.731  11.936 -33.190  1.00  0.00     0.044 C 
ENDROOT
TORSDOF 0
ENDMDL
