MODEL 1
REMARK VINA RESULT:      -5.4      0.000      0.000
REMARK SMILES CC1=CC[C@H]2C[C@@H]1C2(C)C
REMARK SMILES IDX 1 1 2 2 3 3 4 4 5 5 6 6 7 7 8 8 9 9 10 10
REMARK H PARENT
ROOT
ATOM      1  C   UNL     1      -4.930  -1.393 -26.253  1.00  0.00     0.039 C 
ATOM      2  C   UNL     1      -4.432  -0.950 -27.588  1.00  0.00    -0.074 C 
ATOM      3  C   UNL     1      -3.795  -1.735 -28.481  1.00  0.00    -0.027 C 
ATOM      4  C   UNL     1      -3.313  -1.171 -29.803  1.00  0.00     0.031 C 
ATOM      5  C   UNL     1      -3.686   0.324 -29.885  1.00  0.00    -0.000 C 
ATOM      6  C   UNL     1      -5.189   0.519 -29.493  1.00  0.00     0.013 C 
ATOM      7  C   UNL     1      -4.653   0.480 -28.015  1.00  0.00     0.021 C 
ATOM      8  C   UNL     1      -3.347   1.188 -28.592  1.00  0.00    -0.026 C 
ATOM      9  C   UNL     1      -3.467   2.715 -28.775  1.00  0.00     0.012 C 
ATOM     10  C   UNL     1      -2.008   0.917 -27.893  1.00  0.00     0.012 C 
ENDROOT
TORSDOF 0
ENDMDL
MODEL 2
REMARK VINA RESULT:      -5.4      1.103      3.002
REMARK SMILES CC1=CC[C@H]2C[C@@H]1C2(C)C
REMARK SMILES IDX 1 1 2 2 3 3 4 4 5 5 6 6 7 7 8 8 9 9 10 10
REMARK H PARENT
ROOT
ATOM      1  C   UNL     1      -5.439   0.471 -31.213  1.00  0.00     0.039 C 
ATOM      2  C   UNL     1      -4.296   0.428 -30.255  1.00  0.00    -0.074 C 
ATOM      3  C   UNL     1      -3.021   0.128 -30.577  1.00  0.00    -0.027 C 
ATOM      4  C   UNL     1      -1.941   0.093 -29.514  1.00  0.00     0.031 C 
ATOM      5  C   UNL     1      -2.562   0.448 -28.146  1.00  0.00    -0.000 C 
ATOM      6  C   UNL     1      -3.438   1.739 -28.280  1.00  0.00     0.013 C 
ATOM      7  C   UNL     1      -4.545   0.752 -28.803  1.00  0.00     0.021 C 
ATOM      8  C   UNL     1      -3.917  -0.307 -27.790  1.00  0.00    -0.026 C 
ATOM      9  C   UNL     1      -4.384  -0.158 -26.328  1.00  0.00     0.012 C 
ATOM     10  C   UNL     1      -4.010  -1.795 -28.150  1.00  0.00     0.012 C 
ENDROOT
TORSDOF 0
ENDMDL
MODEL 3
REMARK VINA RESULT:      -5.4      1.439      2.493
REMARK SMILES CC1=CC[C@H]2C[C@@H]1C2(C)C
REMARK SMILES IDX 1 1 2 2 3 3 4 4 5 5 6 6 7 7 8 8 9 9 10 10
REMARK H PARENT
ROOT
ATOM      1  C   UNL     1      -6.959   0.636 -29.188  1.00  0.00     0.039 C 
ATOM      2  C   UNL     1      -5.863  -0.316 -28.842  1.00  0.00    -0.074 C 
ATOM      3  C   UNL     1      -5.961  -1.327 -27.955  1.00  0.00    -0.027 C 
ATOM      4  C   UNL     1      -4.773  -2.221 -27.664  1.00  0.00     0.031 C 
ATOM      5  C   UNL     1      -3.573  -1.769 -28.523  1.00  0.00    -0.000 C 
ATOM      6  C   UNL     1      -4.024  -1.586 -30.011  1.00  0.00     0.013 C 
ATOM      7  C   UNL     1      -4.527  -0.176 -29.528  1.00  0.00     0.021 C 
ATOM      8  C   UNL     1      -3.284  -0.204 -28.529  1.00  0.00    -0.026 C 
ATOM      9  C   UNL     1      -1.940   0.211 -29.159  1.00  0.00     0.012 C 
ATOM     10  C   UNL     1      -3.412   0.542 -27.194  1.00  0.00     0.012 C 
ENDROOT
TORSDOF 0
ENDMDL
MODEL 4
REMARK VINA RESULT:      -5.4      1.213      2.506
REMARK SMILES CC1=CC[C@H]2C[C@@H]1C2(C)C
REMARK SMILES IDX 1 1 2 2 3 3 4 4 5 5 6 6 7 7 8 8 9 9 10 10
REMARK H PARENT
ROOT
ATOM      1  C   UNL     1      -4.164   0.144 -25.980  1.00  0.00     0.039 C 
ATOM      2  C   UNL     1      -3.603   0.014 -27.356  1.00  0.00    -0.074 C 
ATOM      3  C   UNL     1      -2.422   0.522 -27.767  1.00  0.00    -0.027 C 
ATOM      4  C   UNL     1      -1.961   0.347 -29.200  1.00  0.00     0.031 C 
ATOM      5  C   UNL     1      -3.019  -0.459 -29.982  1.00  0.00    -0.000 C 
ATOM      6  C   UNL     1      -3.426  -1.732 -29.167  1.00  0.00     0.013 C 
ATOM      7  C   UNL     1      -4.383  -0.751 -28.397  1.00  0.00     0.021 C 
ATOM      8  C   UNL     1      -4.526   0.017 -29.787  1.00  0.00    -0.026 C 
ATOM      9  C   UNL     1      -5.540  -0.606 -30.767  1.00  0.00     0.012 C 
ATOM     10  C   UNL     1      -4.790   1.528 -29.755  1.00  0.00     0.012 C 
ENDROOT
TORSDOF 0
ENDMDL
MODEL 5
REMARK VINA RESULT:      -5.3      4.528      6.473
REMARK SMILES CC1=CC[C@H]2C[C@@H]1C2(C)C
REMARK SMILES IDX 1 1 2 2 3 3 4 4 5 5 6 6 7 7 8 8 9 9 10 10
REMARK H PARENT
ROOT
ATOM      1  C   UNL     1      -6.281   2.438 -30.881  1.00  0.00     0.039 C 
ATOM      2  C   UNL     1      -7.113   1.531 -31.725  1.00  0.00    -0.074 C 
ATOM      3  C   UNL     1      -7.069   1.463 -33.072  1.00  0.00    -0.027 C 
ATOM      4  C   UNL     1      -7.979   0.517 -33.829  1.00  0.00     0.031 C 
ATOM      5  C   UNL     1      -8.852  -0.264 -32.825  1.00  0.00    -0.000 C 
ATOM      6  C   UNL     1      -7.955  -0.845 -31.681  1.00  0.00     0.013 C 
ATOM      7  C   UNL     1      -8.083   0.591 -31.054  1.00  0.00     0.021 C 
ATOM      8  C   UNL     1      -9.545   0.612 -31.691  1.00  0.00    -0.026 C 
ATOM      9  C   UNL     1     -10.620  -0.120 -30.864  1.00  0.00     0.012 C 
ATOM     10  C   UNL     1     -10.133   1.966 -32.107  1.00  0.00     0.012 C 
ENDROOT
TORSDOF 0
ENDMDL
MODEL 6
REMARK VINA RESULT:      -5.3      1.334      3.020
REMARK SMILES CC1=CC[C@H]2C[C@@H]1C2(C)C
REMARK SMILES IDX 1 1 2 2 3 3 4 4 5 5 6 6 7 7 8 8 9 9 10 10
REMARK H PARENT
ROOT
ATOM      1  C   UNL     1      -1.920   1.140 -27.767  1.00  0.00     0.039 C 
ATOM      2  C   UNL     1      -2.702   0.223 -28.647  1.00  0.00    -0.074 C 
ATOM      3  C   UNL     1      -2.460   0.004 -29.956  1.00  0.00    -0.027 C 
ATOM      4  C   UNL     1      -3.336  -0.936 -30.759  1.00  0.00     0.031 C 
ATOM      5  C   UNL     1      -4.429  -1.523 -29.841  1.00  0.00    -0.000 C 
ATOM      6  C   UNL     1      -3.782  -2.052 -28.517  1.00  0.00     0.013 C 
ATOM      7  C   UNL     1      -3.856  -0.550 -28.057  1.00  0.00     0.021 C 
ATOM      8  C   UNL     1      -5.193  -0.472 -28.923  1.00  0.00    -0.026 C 
ATOM      9  C   UNL     1      -6.452  -1.012 -28.217  1.00  0.00     0.012 C 
ATOM     10  C   UNL     1      -5.566   0.876 -29.555  1.00  0.00     0.012 C 
ENDROOT
TORSDOF 0
ENDMDL
MODEL 7
REMARK VINA RESULT:      -5.2      4.549      5.962
REMARK SMILES CC1=CC[C@H]2C[C@@H]1C2(C)C
REMARK SMILES IDX 1 1 2 2 3 3 4 4 5 5 6 6 7 7 8 8 9 9 10 10
REMARK H PARENT
ROOT
ATOM      1  C   UNL     1      -9.827  -1.930 -31.182  1.00  0.00     0.039 C 
ATOM      2  C   UNL     1      -9.323  -0.725 -31.904  1.00  0.00    -0.074 C 
ATOM      3  C   UNL     1      -9.108  -0.646 -33.233  1.00  0.00    -0.027 C 
ATOM      4  C   UNL     1      -8.572   0.626 -33.857  1.00  0.00     0.031 C 
ATOM      5  C   UNL     1      -8.366   1.687 -32.754  1.00  0.00    -0.000 C 
ATOM      6  C   UNL     1      -9.646   1.776 -31.858  1.00  0.00     0.013 C 
ATOM      7  C   UNL     1      -9.033   0.530 -31.119  1.00  0.00     0.021 C 
ATOM      8  C   UNL     1      -7.614   1.180 -31.446  1.00  0.00    -0.026 C 
ATOM      9  C   UNL     1      -7.173   2.292 -30.473  1.00  0.00     0.012 C 
ATOM     10  C   UNL     1      -6.416   0.241 -31.640  1.00  0.00     0.012 C 
ENDROOT
TORSDOF 0
ENDMDL
MODEL 8
REMARK VINA RESULT:      -5.2      1.132      3.323
REMARK SMILES CC1=CC[C@H]2C[C@@H]1C2(C)C
REMARK SMILES IDX 1 1 2 2 3 3 4 4 5 5 6 6 7 7 8 8 9 9 10 10
REMARK H PARENT
ROOT
ATOM      1  C   UNL     1      -6.050   2.347 -29.185  1.00  0.00     0.039 C 
ATOM      2  C   UNL     1      -4.737   1.804 -28.730  1.00  0.00    -0.074 C 
ATOM      3  C   UNL     1      -3.603   2.522 -28.592  1.00  0.00    -0.027 C 
ATOM      4  C   UNL     1      -2.317   1.859 -28.142  1.00  0.00     0.031 C 
ATOM      5  C   UNL     1      -2.577   0.358 -27.895  1.00  0.00    -0.000 C 
ATOM      6  C   UNL     1      -3.858   0.178 -27.014  1.00  0.00     0.013 C 
ATOM      7  C   UNL     1      -4.633   0.342 -28.373  1.00  0.00     0.021 C 
ATOM      8  C   UNL     1      -3.386  -0.396 -29.039  1.00  0.00    -0.026 C 
ATOM      9  C   UNL     1      -3.408  -1.933 -28.922  1.00  0.00     0.012 C 
ATOM     10  C   UNL     1      -3.036  -0.054 -30.493  1.00  0.00     0.012 C 
ENDROOT
TORSDOF 0
ENDMDL
MODEL 9
REMARK VINA RESULT:      -5.1      1.187      2.512
REMARK SMILES CC1=CC[C@H]2C[C@@H]1C2(C)C
REMARK SMILES IDX 1 1 2 2 3 3 4 4 5 5 6 6 7 7 8 8 9 9 10 10
REMARK H PARENT
ROOT
ATOM      1  C   UNL     1      -6.360   1.147 -30.229  1.00  0.00     0.039 C 
ATOM      2  C   UNL     1      -5.242   0.232 -29.858  1.00  0.00    -0.074 C 
ATOM      3  C   UNL     1      -5.335  -1.110 -29.755  1.00  0.00    -0.027 C 
ATOM      4  C   UNL     1      -4.134  -1.941 -29.348  1.00  0.00     0.031 C 
ATOM      5  C   UNL     1      -2.924  -1.010 -29.119  1.00  0.00    -0.000 C 
ATOM      6  C   UNL     1      -2.777  -0.024 -30.326  1.00  0.00     0.013 C 
ATOM      7  C   UNL     1      -3.878   0.816 -29.582  1.00  0.00     0.021 C 
ATOM      8  C   UNL     1      -3.211   0.283 -28.236  1.00  0.00    -0.026 C 
ATOM      9  C   UNL     1      -1.957   1.059 -27.786  1.00  0.00     0.012 C 
ATOM     10  C   UNL     1      -4.107   0.110 -27.003  1.00  0.00     0.012 C 
ENDROOT
TORSDOF 0
ENDMDL
MODEL 10
REMARK VINA RESULT:      -5.1      1.319      3.465
REMARK SMILES CC1=CC[C@H]2C[C@@H]1C2(C)C
REMARK SMILES IDX 1 1 2 2 3 3 4 4 5 5 6 6 7 7 8 8 9 9 10 10
REMARK H PARENT
ROOT
ATOM      1  C   UNL     1      -5.270   2.159 -30.185  1.00  0.00     0.039 C 
ATOM      2  C   UNL     1      -4.470   0.906 -30.061  1.00  0.00    -0.074 C 
ATOM      3  C   UNL     1      -3.798   0.308 -31.066  1.00  0.00    -0.027 C 
ATOM      4  C   UNL     1      -3.034  -0.979 -30.829  1.00  0.00     0.031 C 
ATOM      5  C   UNL     1      -3.177  -1.392 -29.348  1.00  0.00    -0.000 C 
ATOM      6  C   UNL     1      -2.878  -0.164 -28.424  1.00  0.00     0.013 C 
ATOM      7  C   UNL     1      -4.372   0.230 -28.716  1.00  0.00     0.021 C 
ATOM      8  C   UNL     1      -4.655  -1.338 -28.761  1.00  0.00    -0.026 C 
ATOM      9  C   UNL     1      -4.836  -2.002 -27.381  1.00  0.00     0.012 C 
ATOM     10  C   UNL     1      -5.791  -1.842 -29.661  1.00  0.00     0.012 C 
ENDROOT
TORSDOF 0
ENDMDL
