MODEL 1
REMARK VINA RESULT:      -3.1      0.000      0.000
REMARK SMILES Br[13CH](Br)Br
REMARK SMILES IDX 2 1 1 2 3 3 4 4
REMARK H PARENT
ROOT
ATOM      1  C   UNL     1       6.604  -1.350 -18.700  1.00  0.00     0.191 C 
ATOM      2  Br  UNL     1       8.361  -0.515 -18.685  1.00  0.00    -0.064 Br
ATOM      3  Br  UNL     1       6.485  -2.784 -20.008  1.00  0.00    -0.064 Br
ATOM      4  Br  UNL     1       6.051  -1.925 -16.927  1.00  0.00    -0.064 Br
ENDROOT
TORSDOF 0
ENDMDL
MODEL 2
REMARK VINA RESULT:      -3.1      0.024      2.796
REMARK SMILES Br[13CH](Br)Br
REMARK SMILES IDX 2 1 1 2 3 3 4 4
REMARK H PARENT
ROOT
ATOM      1  C   UNL     1       6.596  -1.340 -18.686  1.00  0.00     0.191 C 
ATOM      2  Br  UNL     1       6.486  -2.778 -19.991  1.00  0.00    -0.064 Br
ATOM      3  Br  UNL     1       6.058  -1.919 -16.910  1.00  0.00    -0.064 Br
ATOM      4  Br  UNL     1       8.343  -0.486 -18.682  1.00  0.00    -0.064 Br
ENDROOT
TORSDOF 0
ENDMDL
MODEL 3
REMARK VINA RESULT:      -2.7     13.668     14.638
REMARK SMILES Br[13CH](Br)Br
REMARK SMILES IDX 2 1 1 2 3 3 4 4
REMARK H PARENT
ROOT
ATOM      1  C   UNL     1      -2.736  -0.658 -28.979  1.00  0.00     0.191 C 
ATOM      2  Br  UNL     1      -3.101  -0.254 -30.846  1.00  0.00    -0.064 Br
ATOM      3  Br  UNL     1      -2.265   0.932 -27.963  1.00  0.00    -0.064 Br
ATOM      4  Br  UNL     1      -4.182  -1.658 -28.150  1.00  0.00    -0.064 Br
ENDROOT
TORSDOF 0
ENDMDL
MODEL 4
REMARK VINA RESULT:      -2.7     13.680     14.652
REMARK SMILES Br[13CH](Br)Br
REMARK SMILES IDX 2 1 1 2 3 3 4 4
REMARK H PARENT
ROOT
ATOM      1  C   UNL     1      -2.737  -0.680 -29.014  1.00  0.00     0.191 C 
ATOM      2  Br  UNL     1      -4.178  -1.680 -28.175  1.00  0.00    -0.064 Br
ATOM      3  Br  UNL     1      -3.116  -0.268 -30.875  1.00  0.00    -0.064 Br
ATOM      4  Br  UNL     1      -2.254   0.904 -27.994  1.00  0.00    -0.064 Br
ENDROOT
TORSDOF 0
ENDMDL
MODEL 5
REMARK VINA RESULT:      -2.7     13.668     14.629
REMARK SMILES Br[13CH](Br)Br
REMARK SMILES IDX 2 1 1 2 3 3 4 4
REMARK H PARENT
ROOT
ATOM      1  C   UNL     1      -2.735  -0.656 -28.980  1.00  0.00     0.191 C 
ATOM      2  Br  UNL     1      -2.264   0.933 -27.964  1.00  0.00    -0.064 Br
ATOM      3  Br  UNL     1      -4.180  -1.658 -28.149  1.00  0.00    -0.064 Br
ATOM      4  Br  UNL     1      -3.100  -0.252 -30.846  1.00  0.00    -0.064 Br
ENDROOT
TORSDOF 0
ENDMDL
MODEL 6
REMARK VINA RESULT:      -2.7     13.541     14.933
REMARK SMILES Br[13CH](Br)Br
REMARK SMILES IDX 2 1 1 2 3 3 4 4
REMARK H PARENT
ROOT
ATOM      1  C   UNL     1      -1.672  -9.826 -27.026  1.00  0.00     0.191 C 
ATOM      2  Br  UNL     1      -1.174 -11.605 -27.636  1.00  0.00    -0.064 Br
ATOM      3  Br  UNL     1      -0.181  -8.581 -27.100  1.00  0.00    -0.064 Br
ATOM      4  Br  UNL     1      -3.242  -9.148 -27.950  1.00  0.00    -0.064 Br
ENDROOT
TORSDOF 0
ENDMDL
MODEL 7
REMARK VINA RESULT:      -2.7      1.911      2.456
REMARK SMILES Br[13CH](Br)Br
REMARK SMILES IDX 2 1 1 2 3 3 4 4
REMARK H PARENT
ROOT
ATOM      1  C   UNL     1       7.652  -0.590 -16.936  1.00  0.00     0.191 C 
ATOM      2  Br  UNL     1       9.101  -0.962 -15.694  1.00  0.00    -0.064 Br
ATOM      3  Br  UNL     1       8.256  -0.568 -18.783  1.00  0.00    -0.064 Br
ATOM      4  Br  UNL     1       6.137  -1.781 -16.673  1.00  0.00    -0.064 Br
ENDROOT
TORSDOF 0
ENDMDL
MODEL 8
REMARK VINA RESULT:      -2.7     13.647     13.982
REMARK SMILES Br[13CH](Br)Br
REMARK SMILES IDX 2 1 1 2 3 3 4 4
REMARK H PARENT
ROOT
ATOM      1  C   UNL     1      -3.827  -0.035 -28.006  1.00  0.00     0.191 C 
ATOM      2  Br  UNL     1      -2.196   1.018 -27.900  1.00  0.00    -0.064 Br
ATOM      3  Br  UNL     1      -3.557  -1.712 -28.952  1.00  0.00    -0.064 Br
ATOM      4  Br  UNL     1      -4.643  -0.299 -26.261  1.00  0.00    -0.064 Br
ENDROOT
TORSDOF 0
ENDMDL
MODEL 9
REMARK VINA RESULT:      -2.6     13.551     14.842
REMARK SMILES Br[13CH](Br)Br
REMARK SMILES IDX 2 1 1 2 3 3 4 4
REMARK H PARENT
ROOT
ATOM      1  C   UNL     1      -1.758  -9.847 -26.981  1.00  0.00     0.191 C 
ATOM      2  Br  UNL     1      -0.373  -8.483 -27.016  1.00  0.00    -0.064 Br
ATOM      3  Br  UNL     1      -3.423  -9.223 -27.767  1.00  0.00    -0.064 Br
ATOM      4  Br  UNL     1      -1.157 -11.522 -27.765  1.00  0.00    -0.064 Br
ENDROOT
TORSDOF 0
ENDMDL
MODEL 10
REMARK VINA RESULT:      -2.6     13.553     14.909
REMARK SMILES Br[13CH](Br)Br
REMARK SMILES IDX 2 1 1 2 3 3 4 4
REMARK H PARENT
ROOT
ATOM      1  C   UNL     1      -1.759  -9.850 -26.981  1.00  0.00     0.191 C 
ATOM      2  Br  UNL     1      -3.426  -9.228 -27.766  1.00  0.00    -0.064 Br
ATOM      3  Br  UNL     1      -1.157 -11.523 -27.767  1.00  0.00    -0.064 Br
ATOM      4  Br  UNL     1      -0.377  -8.482 -27.017  1.00  0.00    -0.064 Br
ENDROOT
TORSDOF 0
ENDMDL
