MODEL 1
REMARK VINA RESULT:      -8.3      0.000      0.000
REMARK SMILES O=C(/C=C/c1ccc(O)c(O)c1)O[C@@H]1C[C@](O)(C(=O)O)C[C@@H](O)[C@H]1O
REMARK SMILES IDX 2 1 1 2 13 3 14 4 21 5 22 6 16 7 24 8 15 9 23 10 17 12 18 14
REMARK SMILES IDX 19 15 20 16 25 18 3 20 4 21 5 22 12 23 6 24 10 25 7 26 8 27
REMARK SMILES IDX 11 28 9 30
REMARK H PARENT 23 11 17 13 20 17 25 19 11 29 9 31
ROOT
ATOM      1  C   UNL     1      -5.014   3.017 -30.408  1.00  0.00     0.331 C 
ATOM      2  O   UNL     1      -4.857   4.211 -30.626  1.00  0.00    -0.247 OA
ENDROOT
BRANCH   1   3
ATOM      3  O   UNL     1      -4.073   2.170 -29.930  1.00  0.00    -0.456 OA
BRANCH   3   4
ATOM      4  C   UNL     1      -4.537   0.847 -29.589  1.00  0.00     0.211 C 
ATOM      5  C   UNL     1      -4.004  -1.724 -28.191  1.00  0.00     0.082 C 
ATOM      6  C   UNL     1      -3.869  -1.610 -29.709  1.00  0.00     0.150 C 
ATOM      7  C   UNL     1      -4.991  -0.694 -27.627  1.00  0.00     0.167 C 
ATOM      8  C   UNL     1      -3.542  -0.178 -30.164  1.00  0.00     0.184 C 
ATOM      9  C   UNL     1      -4.625   0.724 -28.064  1.00  0.00     0.095 C 
BRANCH   6  10
ATOM     10  O   UNL     1      -5.076  -2.034 -30.364  1.00  0.00    -0.390 OA
ATOM     11  H   UNL     1      -5.550  -2.650 -29.768  1.00  0.00     0.211 HD
ENDBRANCH   6  10
BRANCH   7  12
ATOM     12  O   UNL     1      -6.311  -1.023 -28.116  1.00  0.00    -0.378 OA
ATOM     13  H   UNL     1      -6.197  -1.618 -28.888  1.00  0.00     0.212 HD
ENDBRANCH   7  12
BRANCH   7  14
ATOM     14  C   UNL     1      -5.000  -0.809 -26.094  1.00  0.00     0.335 C 
ATOM     15  O   UNL     1      -5.453  -1.749 -25.463  1.00  0.00    -0.249 OA
BRANCH  14  16
ATOM     16  O   UNL     1      -4.455   0.287 -25.508  1.00  0.00    -0.479 OA
ATOM     17  H   UNL     1      -5.147   0.770 -25.001  1.00  0.00     0.296 HD
ENDBRANCH  14  16
ENDBRANCH   7  14
BRANCH   8  18
ATOM     18  O   UNL     1      -3.578  -0.132 -31.597  1.00  0.00    -0.387 OA
ATOM     19  H   UNL     1      -3.104   0.687 -31.850  1.00  0.00     0.211 HD
ENDBRANCH   8  18
ENDBRANCH   3   4
ENDBRANCH   1   3
BRANCH   1  20
ATOM     20  C   UNL     1      -6.289   2.327 -30.692  1.00  0.00     0.094 C 
ATOM     21  C   UNL     1      -6.758   2.091 -31.927  1.00  0.00     0.016 C 
BRANCH  21  22
ATOM     22  C   UNL     1      -8.023   1.391 -32.188  1.00  0.00    -0.021 A 
ATOM     23  C   UNL     1      -8.948   1.124 -31.166  1.00  0.00     0.058 A 
ATOM     24  C   UNL     1      -8.335   1.034 -33.509  1.00  0.00     0.012 A 
ATOM     25  C   UNL     1     -10.147   0.488 -31.475  1.00  0.00     0.157 A 
ATOM     26  C   UNL     1      -9.541   0.393 -33.810  1.00  0.00     0.051 A 
ATOM     27  C   UNL     1     -10.436   0.124 -32.786  1.00  0.00     0.157 A 
BRANCH  25  28
ATOM     28  O   UNL     1     -11.082   0.204 -30.518  1.00  0.00    -0.504 OA
ATOM     29  H   UNL     1     -10.690  -0.419 -29.882  1.00  0.00     0.293 HD
ENDBRANCH  25  28
BRANCH  27  30
ATOM     30  O   UNL     1     -11.615  -0.498 -33.079  1.00  0.00    -0.504 OA
ATOM     31  H   UNL     1     -11.661  -1.244 -32.448  1.00  0.00     0.293 HD
ENDBRANCH  27  30
ENDBRANCH  21  22
ENDBRANCH   1  20
TORSDOF 11
ENDMDL
MODEL 2
REMARK VINA RESULT:      -8.0      1.748      4.223
REMARK SMILES O=C(/C=C/c1ccc(O)c(O)c1)O[C@@H]1C[C@](O)(C(=O)O)C[C@@H](O)[C@H]1O
REMARK SMILES IDX 2 1 1 2 13 3 14 4 21 5 22 6 16 7 24 8 15 9 23 10 17 12 18 14
REMARK SMILES IDX 19 15 20 16 25 18 3 20 4 21 5 22 12 23 6 24 10 25 7 26 8 27
REMARK SMILES IDX 11 28 9 30
REMARK H PARENT 23 11 17 13 20 17 25 19 11 29 9 31
ROOT
ATOM      1  C   UNL     1      -6.907  -1.248 -27.140  1.00  0.00     0.331 C 
ATOM      2  O   UNL     1      -7.508  -1.526 -26.112  1.00  0.00    -0.247 OA
ENDROOT
BRANCH   1   3
ATOM      3  O   UNL     1      -5.604  -1.516 -27.392  1.00  0.00    -0.456 OA
BRANCH   3   4
ATOM      4  C   UNL     1      -4.834  -0.423 -27.937  1.00  0.00     0.211 C 
ATOM      5  C   UNL     1      -2.177   0.602 -28.793  1.00  0.00     0.082 C 
ATOM      6  C   UNL     1      -2.796   1.033 -27.464  1.00  0.00     0.150 C 
ATOM      7  C   UNL     1      -3.245   0.192 -29.815  1.00  0.00     0.167 C 
ATOM      8  C   UNL     1      -3.769  -0.018 -26.902  1.00  0.00     0.184 C 
ATOM      9  C   UNL     1      -4.177  -0.877 -29.245  1.00  0.00     0.095 C 
BRANCH   6  10
ATOM     10  O   UNL     1      -3.498   2.278 -27.607  1.00  0.00    -0.390 OA
ATOM     11  H   UNL     1      -4.455   2.110 -27.478  1.00  0.00     0.211 HD
ENDBRANCH   6  10
BRANCH   7  12
ATOM     12  O   UNL     1      -4.012   1.368 -30.157  1.00  0.00    -0.378 OA
ATOM     13  H   UNL     1      -4.205   1.845 -29.322  1.00  0.00     0.212 HD
ENDBRANCH   7  12
BRANCH   7  14
ATOM     14  C   UNL     1      -2.543  -0.316 -31.084  1.00  0.00     0.335 C 
ATOM     15  O   UNL     1      -3.030  -1.083 -31.898  1.00  0.00    -0.249 OA
BRANCH  14  16
ATOM     16  O   UNL     1      -1.284   0.180 -31.191  1.00  0.00    -0.479 OA
ATOM     17  H   UNL     1      -1.020   0.596 -30.339  1.00  0.00     0.296 HD
ENDBRANCH  14  16
ENDBRANCH   7  14
BRANCH   8  18
ATOM     18  O   UNL     1      -4.410   0.527 -25.740  1.00  0.00    -0.387 OA
ATOM     19  H   UNL     1      -5.154   1.069 -26.075  1.00  0.00     0.211 HD
ENDBRANCH   8  18
ENDBRANCH   3   4
ENDBRANCH   1   3
BRANCH   1  20
ATOM     20  C   UNL     1      -7.548  -0.521 -28.254  1.00  0.00     0.094 C 
ATOM     21  C   UNL     1      -8.372  -1.089 -29.149  1.00  0.00     0.016 C 
BRANCH  21  22
ATOM     22  C   UNL     1      -9.010  -0.345 -30.243  1.00  0.00    -0.021 A 
ATOM     23  C   UNL     1     -10.084  -0.877 -30.975  1.00  0.00     0.058 A 
ATOM     24  C   UNL     1      -8.566   0.958 -30.521  1.00  0.00     0.012 A 
ATOM     25  C   UNL     1     -10.673  -0.115 -31.979  1.00  0.00     0.157 A 
ATOM     26  C   UNL     1      -9.163   1.715 -31.533  1.00  0.00     0.051 A 
ATOM     27  C   UNL     1     -10.212   1.168 -32.255  1.00  0.00     0.157 A 
BRANCH  25  28
ATOM     28  O   UNL     1     -11.721  -0.586 -32.723  1.00  0.00    -0.504 OA
ATOM     29  H   UNL     1     -11.631  -0.244 -33.629  1.00  0.00     0.293 HD
ENDBRANCH  25  28
BRANCH  27  30
ATOM     30  O   UNL     1     -10.798   1.908 -33.242  1.00  0.00    -0.504 OA
ATOM     31  H   UNL     1     -10.761   2.828 -32.913  1.00  0.00     0.293 HD
ENDBRANCH  27  30
ENDBRANCH  21  22
ENDBRANCH   1  20
TORSDOF 11
ENDMDL
MODEL 3
REMARK VINA RESULT:      -7.9      3.902      5.228
REMARK SMILES O=C(/C=C/c1ccc(O)c(O)c1)O[C@@H]1C[C@](O)(C(=O)O)C[C@@H](O)[C@H]1O
REMARK SMILES IDX 2 1 1 2 13 3 14 4 21 5 22 6 16 7 24 8 15 9 23 10 17 12 18 14
REMARK SMILES IDX 19 15 20 16 25 18 3 20 4 21 5 22 12 23 6 24 10 25 7 26 8 27
REMARK SMILES IDX 11 28 9 30
REMARK H PARENT 23 11 17 13 20 17 25 19 11 29 9 31
ROOT
ATOM      1  C   UNL     1      -6.909  -1.061 -31.005  1.00  0.00     0.331 C 
ATOM      2  O   UNL     1      -7.059  -0.263 -31.920  1.00  0.00    -0.247 OA
ENDROOT
BRANCH   1   3
ATOM      3  O   UNL     1      -5.745  -1.319 -30.364  1.00  0.00    -0.456 OA
BRANCH   3   4
ATOM      4  C   UNL     1      -5.493  -0.529 -29.182  1.00  0.00     0.211 C 
ATOM      5  C   UNL     1      -3.493   0.734 -27.379  1.00  0.00     0.082 C 
ATOM      6  C   UNL     1      -4.207  -0.558 -26.981  1.00  0.00     0.150 C 
ATOM      7  C   UNL     1      -4.325   1.567 -28.362  1.00  0.00     0.167 C 
ATOM      8  C   UNL     1      -4.662  -1.376 -28.201  1.00  0.00     0.184 C 
ATOM      9  C   UNL     1      -4.735   0.742 -29.581  1.00  0.00     0.095 C 
BRANCH   6  10
ATOM     10  O   UNL     1      -5.355  -0.277 -26.164  1.00  0.00    -0.390 OA
ATOM     11  H   UNL     1      -5.209  -0.672 -25.280  1.00  0.00     0.211 HD
ENDBRANCH   6  10
BRANCH   7  12
ATOM     12  O   UNL     1      -5.508   2.026 -27.671  1.00  0.00    -0.378 OA
ATOM     13  H   UNL     1      -5.212   2.612 -26.942  1.00  0.00     0.212 HD
ENDBRANCH   7  12
BRANCH   7  14
ATOM     14  C   UNL     1      -3.503   2.795 -28.784  1.00  0.00     0.335 C 
ATOM     15  O   UNL     1      -2.730   3.404 -28.064  1.00  0.00    -0.249 OA
BRANCH  14  16
ATOM     16  O   UNL     1      -3.757   3.148 -30.070  1.00  0.00    -0.479 OA
ATOM     17  H   UNL     1      -4.530   2.639 -30.406  1.00  0.00     0.296 HD
ENDBRANCH  14  16
ENDBRANCH   7  14
BRANCH   8  18
ATOM     18  O   UNL     1      -5.445  -2.487 -27.742  1.00  0.00    -0.387 OA
ATOM     19  H   UNL     1      -5.980  -2.146 -26.996  1.00  0.00     0.211 HD
ENDBRANCH   8  18
ENDBRANCH   3   4
ENDBRANCH   1   3
BRANCH   1  20
ATOM     20  C   UNL     1      -8.016  -1.900 -30.503  1.00  0.00     0.094 C 
ATOM     21  C   UNL     1      -7.857  -3.133 -29.997  1.00  0.00     0.016 C 
BRANCH  21  22
ATOM     22  C   UNL     1      -8.971  -3.946 -29.491  1.00  0.00    -0.021 A 
ATOM     23  C   UNL     1      -9.736  -4.764 -30.339  1.00  0.00     0.058 A 
ATOM     24  C   UNL     1      -9.235  -3.946 -28.113  1.00  0.00     0.012 A 
ATOM     25  C   UNL     1     -10.759  -5.541 -29.801  1.00  0.00     0.157 A 
ATOM     26  C   UNL     1     -10.266  -4.727 -27.583  1.00  0.00     0.051 A 
ATOM     27  C   UNL     1     -11.021  -5.517 -28.435  1.00  0.00     0.157 A 
BRANCH  25  28
ATOM     28  O   UNL     1     -11.535  -6.353 -30.582  1.00  0.00    -0.504 OA
ATOM     29  H   UNL     1     -11.438  -6.073 -31.507  1.00  0.00     0.293 HD
ENDBRANCH  25  28
BRANCH  27  30
ATOM     30  O   UNL     1     -12.026  -6.283 -27.919  1.00  0.00    -0.504 OA
ATOM     31  H   UNL     1     -12.102  -7.036 -28.537  1.00  0.00     0.293 HD
ENDBRANCH  27  30
ENDBRANCH  21  22
ENDBRANCH   1  20
TORSDOF 11
ENDMDL
MODEL 4
REMARK VINA RESULT:      -7.8      4.468      6.995
REMARK SMILES O=C(/C=C/c1ccc(O)c(O)c1)O[C@@H]1C[C@](O)(C(=O)O)C[C@@H](O)[C@H]1O
REMARK SMILES IDX 2 1 1 2 13 3 14 4 21 5 22 6 16 7 24 8 15 9 23 10 17 12 18 14
REMARK SMILES IDX 19 15 20 16 25 18 3 20 4 21 5 22 12 23 6 24 10 25 7 26 8 27
REMARK SMILES IDX 11 28 9 30
REMARK H PARENT 23 11 17 13 20 17 25 19 11 29 9 31
ROOT
ATOM      1  C   UNL     1      -7.118  -2.461 -29.290  1.00  0.00     0.331 C 
ATOM      2  O   UNL     1      -6.183  -2.126 -28.576  1.00  0.00    -0.247 OA
ENDROOT
BRANCH   1   3
ATOM      3  O   UNL     1      -7.265  -2.151 -30.600  1.00  0.00    -0.456 OA
BRANCH   3   4
ATOM      4  C   UNL     1      -7.580  -0.772 -30.885  1.00  0.00     0.211 C 
ATOM      5  C   UNL     1      -7.941   1.355 -32.933  1.00  0.00     0.082 C 
ATOM      6  C   UNL     1      -6.676   1.291 -32.078  1.00  0.00     0.150 C 
ATOM      7  C   UNL     1      -9.140   0.710 -32.226  1.00  0.00     0.167 C 
ATOM      8  C   UNL     1      -6.368  -0.134 -31.590  1.00  0.00     0.184 C 
ATOM      9  C   UNL     1      -8.822  -0.716 -31.781  1.00  0.00     0.095 C 
BRANCH   6  10
ATOM     10  O   UNL     1      -6.786   2.153 -30.934  1.00  0.00    -0.390 OA
ATOM     11  H   UNL     1      -5.949   2.652 -30.841  1.00  0.00     0.211 HD
ENDBRANCH   6  10
BRANCH   7  12
ATOM     12  O   UNL     1      -9.464   1.515 -31.070  1.00  0.00    -0.378 OA
ATOM     13  H   UNL     1      -9.185   1.011 -30.275  1.00  0.00     0.212 HD
ENDBRANCH   7  12
BRANCH   7  14
ATOM     14  C   UNL     1     -10.343   0.729 -33.182  1.00  0.00     0.335 C 
ATOM     15  O   UNL     1     -10.683  -0.194 -33.902  1.00  0.00    -0.249 OA
BRANCH  14  16
ATOM     16  O   UNL     1     -10.987   1.924 -33.151  1.00  0.00    -0.479 OA
ATOM     17  H   UNL     1     -11.951   1.783 -33.292  1.00  0.00     0.296 HD
ENDBRANCH  14  16
ENDBRANCH   7  14
BRANCH   8  18
ATOM     18  O   UNL     1      -5.259  -0.079 -30.682  1.00  0.00    -0.387 OA
ATOM     19  H   UNL     1      -5.433   0.685 -30.093  1.00  0.00     0.211 HD
ENDBRANCH   8  18
ENDBRANCH   3   4
ENDBRANCH   1   3
BRANCH   1  20
ATOM     20  C   UNL     1      -8.263  -3.238 -28.772  1.00  0.00     0.094 C 
ATOM     21  C   UNL     1      -9.203  -2.740 -27.953  1.00  0.00     0.016 C 
BRANCH  21  22
ATOM     22  C   UNL     1     -10.340  -3.527 -27.459  1.00  0.00    -0.021 A 
ATOM     23  C   UNL     1     -10.576  -4.842 -27.892  1.00  0.00     0.058 A 
ATOM     24  C   UNL     1     -11.177  -2.962 -26.485  1.00  0.00     0.012 A 
ATOM     25  C   UNL     1     -11.649  -5.555 -27.365  1.00  0.00     0.157 A 
ATOM     26  C   UNL     1     -12.255  -3.685 -25.963  1.00  0.00     0.051 A 
ATOM     27  C   UNL     1     -12.481  -4.976 -26.412  1.00  0.00     0.157 A 
BRANCH  25  28
ATOM     28  O   UNL     1     -11.924  -6.838 -27.752  1.00  0.00    -0.504 OA
ATOM     29  H   UNL     1     -12.264  -7.324 -26.981  1.00  0.00     0.293 HD
ENDBRANCH  25  28
BRANCH  27  30
ATOM     30  O   UNL     1     -13.531  -5.684 -25.901  1.00  0.00    -0.504 OA
ATOM     31  H   UNL     1     -13.471  -6.559 -26.335  1.00  0.00     0.293 HD
ENDBRANCH  27  30
ENDBRANCH  21  22
ENDBRANCH   1  20
TORSDOF 11
ENDMDL
MODEL 5
REMARK VINA RESULT:      -7.8      3.871      4.611
REMARK SMILES O=C(/C=C/c1ccc(O)c(O)c1)O[C@@H]1C[C@](O)(C(=O)O)C[C@@H](O)[C@H]1O
REMARK SMILES IDX 2 1 1 2 13 3 14 4 21 5 22 6 16 7 24 8 15 9 23 10 17 12 18 14
REMARK SMILES IDX 19 15 20 16 25 18 3 20 4 21 5 22 12 23 6 24 10 25 7 26 8 27
REMARK SMILES IDX 11 28 9 30
REMARK H PARENT 23 11 17 13 20 17 25 19 11 29 9 31
ROOT
ATOM      1  C   UNL     1      -7.760  -0.666 -30.927  1.00  0.00     0.331 C 
ATOM      2  O   UNL     1      -7.835  -0.590 -32.145  1.00  0.00    -0.247 OA
ENDROOT
BRANCH   1   3
ATOM      3  O   UNL     1      -6.953   0.079 -30.136  1.00  0.00    -0.456 OA
BRANCH   3   4
ATOM      4  C   UNL     1      -5.963  -0.654 -29.385  1.00  0.00     0.211 C 
ATOM      5  C   UNL     1      -3.752  -0.584 -27.396  1.00  0.00     0.082 C 
ATOM      6  C   UNL     1      -3.463  -0.728 -28.889  1.00  0.00     0.150 C 
ATOM      7  C   UNL     1      -5.144  -1.117 -27.030  1.00  0.00     0.167 C 
ATOM      8  C   UNL     1      -4.571  -0.115 -29.763  1.00  0.00     0.184 C 
ATOM      9  C   UNL     1      -6.230  -0.468 -27.887  1.00  0.00     0.095 C 
BRANCH   6  10
ATOM     10  O   UNL     1      -3.307  -2.110 -29.250  1.00  0.00    -0.390 OA
ATOM     11  H   UNL     1      -4.179  -2.550 -29.174  1.00  0.00     0.211 HD
ENDBRANCH   6  10
BRANCH   7  12
ATOM     12  O   UNL     1      -5.148  -2.546 -27.246  1.00  0.00    -0.378 OA
ATOM     13  H   UNL     1      -4.229  -2.863 -27.120  1.00  0.00     0.212 HD
ENDBRANCH   7  12
BRANCH   7  14
ATOM     14  C   UNL     1      -5.395  -0.852 -25.537  1.00  0.00     0.335 C 
ATOM     15  O   UNL     1      -6.073  -1.552 -24.804  1.00  0.00    -0.249 OA
BRANCH  14  16
ATOM     16  O   UNL     1      -4.782   0.286 -25.122  1.00  0.00    -0.479 OA
ATOM     17  H   UNL     1      -4.148   0.074 -24.399  1.00  0.00     0.296 HD
ENDBRANCH  14  16
ENDBRANCH   7  14
BRANCH   8  18
ATOM     18  O   UNL     1      -4.293  -0.422 -31.137  1.00  0.00    -0.387 OA
ATOM     19  H   UNL     1      -4.227   0.441 -31.595  1.00  0.00     0.211 HD
ENDBRANCH   8  18
ENDBRANCH   3   4
ENDBRANCH   1   3
BRANCH   1  20
ATOM     20  C   UNL     1      -8.544  -1.649 -30.151  1.00  0.00     0.094 C 
ATOM     21  C   UNL     1      -8.677  -2.941 -30.488  1.00  0.00     0.016 C 
BRANCH  21  22
ATOM     22  C   UNL     1      -9.451  -3.906 -29.696  1.00  0.00    -0.021 A 
ATOM     23  C   UNL     1      -9.417  -3.908 -28.292  1.00  0.00     0.058 A 
ATOM     24  C   UNL     1     -10.289  -4.810 -30.366  1.00  0.00     0.012 A 
ATOM     25  C   UNL     1     -10.197  -4.823 -27.589  1.00  0.00     0.157 A 
ATOM     26  C   UNL     1     -11.067  -5.726 -29.652  1.00  0.00     0.051 A 
ATOM     27  C   UNL     1     -11.011  -5.725 -28.267  1.00  0.00     0.157 A 
BRANCH  25  28
ATOM     28  O   UNL     1     -10.201  -4.869 -26.222  1.00  0.00    -0.504 OA
ATOM     29  H   UNL     1     -10.052  -5.790 -25.947  1.00  0.00     0.293 HD
ENDBRANCH  25  28
BRANCH  27  30
ATOM     30  O   UNL     1     -11.772  -6.617 -27.569  1.00  0.00    -0.504 OA
ATOM     31  H   UNL     1     -11.293  -7.465 -27.651  1.00  0.00     0.293 HD
ENDBRANCH  27  30
ENDBRANCH  21  22
ENDBRANCH   1  20
TORSDOF 11
ENDMDL
MODEL 6
REMARK VINA RESULT:      -7.7      3.698      4.797
REMARK SMILES O=C(/C=C/c1ccc(O)c(O)c1)O[C@@H]1C[C@](O)(C(=O)O)C[C@@H](O)[C@H]1O
REMARK SMILES IDX 2 1 1 2 13 3 14 4 21 5 22 6 16 7 24 8 15 9 23 10 17 12 18 14
REMARK SMILES IDX 19 15 20 16 25 18 3 20 4 21 5 22 12 23 6 24 10 25 7 26 8 27
REMARK SMILES IDX 11 28 9 30
REMARK H PARENT 23 11 17 13 20 17 25 19 11 29 9 31
ROOT
ATOM      1  C   UNL     1      -7.026  -0.347 -31.534  1.00  0.00     0.331 C 
ATOM      2  O   UNL     1      -7.859   0.369 -32.073  1.00  0.00    -0.247 OA
ENDROOT
BRANCH   1   3
ATOM      3  O   UNL     1      -5.684  -0.181 -31.591  1.00  0.00    -0.456 OA
BRANCH   3   4
ATOM      4  C   UNL     1      -5.028   0.046 -30.325  1.00  0.00     0.211 C 
ATOM      5  C   UNL     1      -2.748   1.266 -28.856  1.00  0.00     0.082 C 
ATOM      6  C   UNL     1      -2.786  -0.234 -29.145  1.00  0.00     0.150 C 
ATOM      7  C   UNL     1      -4.156   1.872 -28.798  1.00  0.00     0.167 C 
ATOM      8  C   UNL     1      -3.618  -0.570 -30.393  1.00  0.00     0.184 C 
ATOM      9  C   UNL     1      -4.950   1.554 -30.063  1.00  0.00     0.095 C 
BRANCH   6  10
ATOM     10  O   UNL     1      -3.325  -0.957 -28.026  1.00  0.00    -0.390 OA
ATOM     11  H   UNL     1      -4.087  -0.454 -27.671  1.00  0.00     0.211 HD
ENDBRANCH   6  10
BRANCH   7  12
ATOM     12  O   UNL     1      -4.835   1.318 -27.649  1.00  0.00    -0.378 OA
ATOM     13  H   UNL     1      -5.699   1.776 -27.571  1.00  0.00     0.212 HD
ENDBRANCH   7  12
BRANCH   7  14
ATOM     14  C   UNL     1      -4.030   3.391 -28.599  1.00  0.00     0.335 C 
ATOM     15  O   UNL     1      -3.007   4.038 -28.756  1.00  0.00    -0.249 OA
BRANCH  14  16
ATOM     16  O   UNL     1      -5.204   3.942 -28.200  1.00  0.00    -0.479 OA
ATOM     17  H   UNL     1      -5.581   4.482 -28.931  1.00  0.00     0.296 HD
ENDBRANCH  14  16
ENDBRANCH   7  14
BRANCH   8  18
ATOM     18  O   UNL     1      -3.722  -1.997 -30.505  1.00  0.00    -0.387 OA
ATOM     19  H   UNL     1      -2.817  -2.316 -30.700  1.00  0.00     0.211 HD
ENDBRANCH   8  18
ENDBRANCH   3   4
ENDBRANCH   1   3
BRANCH   1  20
ATOM     20  C   UNL     1      -7.404  -1.550 -30.765  1.00  0.00     0.094 C 
ATOM     21  C   UNL     1      -8.667  -1.879 -30.453  1.00  0.00     0.016 C 
BRANCH  21  22
ATOM     22  C   UNL     1      -9.023  -3.086 -29.697  1.00  0.00    -0.021 A 
ATOM     23  C   UNL     1      -9.427  -3.028 -28.353  1.00  0.00     0.058 A 
ATOM     24  C   UNL     1      -9.011  -4.324 -30.358  1.00  0.00     0.012 A 
ATOM     25  C   UNL     1      -9.785  -4.200 -27.693  1.00  0.00     0.157 A 
ATOM     26  C   UNL     1      -9.370  -5.497 -29.687  1.00  0.00     0.051 A 
ATOM     27  C   UNL     1      -9.753  -5.422 -28.357  1.00  0.00     0.157 A 
BRANCH  25  28
ATOM     28  O   UNL     1     -10.185  -4.200 -26.385  1.00  0.00    -0.504 OA
ATOM     29  H   UNL     1     -10.682  -3.381 -26.217  1.00  0.00     0.293 HD
ENDBRANCH  25  28
BRANCH  27  30
ATOM     30  O   UNL     1     -10.107  -6.566 -27.701  1.00  0.00    -0.504 OA
ATOM     31  H   UNL     1     -11.040  -6.714 -27.953  1.00  0.00     0.293 HD
ENDBRANCH  27  30
ENDBRANCH  21  22
ENDBRANCH   1  20
TORSDOF 11
ENDMDL
MODEL 7
REMARK VINA RESULT:      -7.7      5.422      7.226
REMARK SMILES O=C(/C=C/c1ccc(O)c(O)c1)O[C@@H]1C[C@](O)(C(=O)O)C[C@@H](O)[C@H]1O
REMARK SMILES IDX 2 1 1 2 13 3 14 4 21 5 22 6 16 7 24 8 15 9 23 10 17 12 18 14
REMARK SMILES IDX 19 15 20 16 25 18 3 20 4 21 5 22 12 23 6 24 10 25 7 26 8 27
REMARK SMILES IDX 11 28 9 30
REMARK H PARENT 23 11 17 13 20 17 25 19 11 29 9 31
ROOT
ATOM      1  C   UNL     1      -9.986  -4.978 -29.833  1.00  0.00     0.331 C 
ATOM      2  O   UNL     1     -10.629  -5.808 -30.461  1.00  0.00    -0.247 OA
ENDROOT
BRANCH   1   3
ATOM      3  O   UNL     1      -9.670  -5.052 -28.519  1.00  0.00    -0.456 OA
BRANCH   3   4
ATOM      4  C   UNL     1     -10.739  -4.742 -27.600  1.00  0.00     0.211 C 
ATOM      5  C   UNL     1     -11.677  -4.621 -24.780  1.00  0.00     0.082 C 
ATOM      6  C   UNL     1     -12.120  -5.750 -25.709  1.00  0.00     0.150 C 
ATOM      7  C   UNL     1     -11.311  -3.351 -25.559  1.00  0.00     0.167 C 
ATOM      8  C   UNL     1     -11.100  -6.024 -26.827  1.00  0.00     0.184 C 
ATOM      9  C   UNL     1     -10.272  -3.642 -26.640  1.00  0.00     0.095 C 
BRANCH   6  10
ATOM     10  O   UNL     1     -13.389  -5.450 -26.311  1.00  0.00    -0.390 OA
ATOM     11  H   UNL     1     -13.476  -5.980 -27.130  1.00  0.00     0.211 HD
ENDBRANCH   6  10
BRANCH   7  12
ATOM     12  O   UNL     1     -12.516  -2.839 -26.173  1.00  0.00    -0.378 OA
ATOM     13  H   UNL     1     -13.268  -3.092 -25.596  1.00  0.00     0.212 HD
ENDBRANCH   7  12
BRANCH   7  14
ATOM     14  C   UNL     1     -10.789  -2.299 -24.568  1.00  0.00     0.335 C 
ATOM     15  O   UNL     1      -9.723  -1.714 -24.661  1.00  0.00    -0.249 OA
BRANCH  14  16
ATOM     16  O   UNL     1     -11.657  -2.104 -23.542  1.00  0.00    -0.479 OA
ATOM     17  H   UNL     1     -11.754  -1.140 -23.370  1.00  0.00     0.296 HD
ENDBRANCH  14  16
ENDBRANCH   7  14
BRANCH   8  18
ATOM     18  O   UNL     1     -11.658  -6.989 -27.731  1.00  0.00    -0.387 OA
ATOM     19  H   UNL     1     -12.609  -7.048 -27.503  1.00  0.00     0.211 HD
ENDBRANCH   8  18
ENDBRANCH   3   4
ENDBRANCH   1   3
BRANCH   1  20
ATOM     20  C   UNL     1      -9.496  -3.730 -30.452  1.00  0.00     0.094 C 
ATOM     21  C   UNL     1     -10.293  -2.735 -30.873  1.00  0.00     0.016 C 
BRANCH  21  22
ATOM     22  C   UNL     1      -9.785  -1.496 -31.476  1.00  0.00    -0.021 A 
ATOM     23  C   UNL     1     -10.647  -0.509 -31.981  1.00  0.00     0.058 A 
ATOM     24  C   UNL     1      -8.399  -1.273 -31.493  1.00  0.00     0.012 A 
ATOM     25  C   UNL     1     -10.112   0.662 -32.511  1.00  0.00     0.157 A 
ATOM     26  C   UNL     1      -7.871  -0.095 -32.030  1.00  0.00     0.051 A 
ATOM     27  C   UNL     1      -8.736   0.861 -32.537  1.00  0.00     0.157 A 
BRANCH  25  28
ATOM     28  O   UNL     1     -10.907   1.654 -33.017  1.00  0.00    -0.504 OA
ATOM     29  H   UNL     1     -11.013   2.339 -32.335  1.00  0.00     0.293 HD
ENDBRANCH  25  28
BRANCH  27  30
ATOM     30  O   UNL     1      -8.222   2.014 -33.058  1.00  0.00    -0.504 OA
ATOM     31  H   UNL     1      -7.955   1.773 -33.968  1.00  0.00     0.293 HD
ENDBRANCH  27  30
ENDBRANCH  21  22
ENDBRANCH   1  20
TORSDOF 11
ENDMDL
MODEL 8
REMARK VINA RESULT:      -7.7      4.663      7.824
REMARK SMILES O=C(/C=C/c1ccc(O)c(O)c1)O[C@@H]1C[C@](O)(C(=O)O)C[C@@H](O)[C@H]1O
REMARK SMILES IDX 2 1 1 2 13 3 14 4 21 5 22 6 16 7 24 8 15 9 23 10 17 12 18 14
REMARK SMILES IDX 19 15 20 16 25 18 3 20 4 21 5 22 12 23 6 24 10 25 7 26 8 27
REMARK SMILES IDX 11 28 9 30
REMARK H PARENT 23 11 17 13 20 17 25 19 11 29 9 31
ROOT
ATOM      1  C   UNL     1      -7.988  -3.231 -29.559  1.00  0.00     0.331 C 
ATOM      2  O   UNL     1      -7.863  -4.180 -30.321  1.00  0.00    -0.247 OA
ENDROOT
BRANCH   1   3
ATOM      3  O   UNL     1      -9.161  -2.721 -29.116  1.00  0.00    -0.456 OA
BRANCH   3   4
ATOM      4  C   UNL     1      -9.552  -3.117 -27.785  1.00  0.00     0.211 C 
ATOM      5  C   UNL     1     -11.707  -3.287 -25.741  1.00  0.00     0.082 C 
ATOM      6  C   UNL     1     -10.619  -2.217 -25.651  1.00  0.00     0.150 C 
ATOM      7  C   UNL     1     -11.226  -4.527 -26.504  1.00  0.00     0.167 C 
ATOM      8  C   UNL     1     -10.028  -1.864 -27.026  1.00  0.00     0.184 C 
ATOM      9  C   UNL     1     -10.676  -4.154 -27.880  1.00  0.00     0.095 C 
BRANCH   6  10
ATOM     10  O   UNL     1      -9.550  -2.645 -24.790  1.00  0.00    -0.390 OA
ATOM     11  H   UNL     1      -8.803  -2.943 -25.349  1.00  0.00     0.211 HD
ENDBRANCH   6  10
BRANCH   7  12
ATOM     12  O   UNL     1     -10.186  -5.159 -25.725  1.00  0.00    -0.378 OA
ATOM     13  H   UNL     1     -10.612  -5.553 -24.934  1.00  0.00     0.212 HD
ENDBRANCH   7  12
BRANCH   7  14
ATOM     14  C   UNL     1     -12.400  -5.511 -26.633  1.00  0.00     0.335 C 
ATOM     15  O   UNL     1     -13.413  -5.489 -25.953  1.00  0.00    -0.249 OA
BRANCH  14  16
ATOM     16  O   UNL     1     -12.170  -6.441 -27.593  1.00  0.00    -0.479 OA
ATOM     17  H   UNL     1     -11.937  -7.300 -27.173  1.00  0.00     0.296 HD
ENDBRANCH  14  16
ENDBRANCH   7  14
BRANCH   8  18
ATOM     18  O   UNL     1      -8.923  -0.970 -26.835  1.00  0.00    -0.387 OA
ATOM     19  H   UNL     1      -8.944  -0.352 -27.595  1.00  0.00     0.211 HD
ENDBRANCH   8  18
ENDBRANCH   3   4
ENDBRANCH   1   3
BRANCH   1  20
ATOM     20  C   UNL     1      -6.826  -2.475 -29.049  1.00  0.00     0.094 C 
ATOM     21  C   UNL     1      -5.806  -2.055 -29.814  1.00  0.00     0.016 C 
BRANCH  21  22
ATOM     22  C   UNL     1      -4.665  -1.293 -29.288  1.00  0.00    -0.021 A 
ATOM     23  C   UNL     1      -3.602  -0.887 -30.111  1.00  0.00     0.058 A 
ATOM     24  C   UNL     1      -4.673  -0.915 -27.937  1.00  0.00     0.012 A 
ATOM     25  C   UNL     1      -2.562  -0.138 -29.568  1.00  0.00     0.157 A 
ATOM     26  C   UNL     1      -3.622  -0.164 -27.400  1.00  0.00     0.051 A 
ATOM     27  C   UNL     1      -2.574   0.215 -28.223  1.00  0.00     0.157 A 
BRANCH  25  28
ATOM     28  O   UNL     1      -1.503   0.282 -30.325  1.00  0.00    -0.504 OA
ATOM     29  H   UNL     1      -1.701   0.097 -31.258  1.00  0.00     0.293 HD
ENDBRANCH  25  28
BRANCH  27  30
ATOM     30  O   UNL     1      -1.550   0.951 -27.700  1.00  0.00    -0.504 OA
ATOM     31  H   UNL     1      -1.992   1.652 -27.180  1.00  0.00     0.293 HD
ENDBRANCH  27  30
ENDBRANCH  21  22
ENDBRANCH   1  20
TORSDOF 11
ENDMDL
MODEL 9
REMARK VINA RESULT:      -7.6      5.380      7.246
REMARK SMILES O=C(/C=C/c1ccc(O)c(O)c1)O[C@@H]1C[C@](O)(C(=O)O)C[C@@H](O)[C@H]1O
REMARK SMILES IDX 2 1 1 2 13 3 14 4 21 5 22 6 16 7 24 8 15 9 23 10 17 12 18 14
REMARK SMILES IDX 19 15 20 16 25 18 3 20 4 21 5 22 12 23 6 24 10 25 7 26 8 27
REMARK SMILES IDX 11 28 9 30
REMARK H PARENT 23 11 17 13 20 17 25 19 11 29 9 31
ROOT
ATOM      1  C   UNL     1     -10.035  -4.914 -29.959  1.00  0.00     0.331 C 
ATOM      2  O   UNL     1     -10.895  -5.548 -30.554  1.00  0.00    -0.247 OA
ENDROOT
BRANCH   1   3
ATOM      3  O   UNL     1      -9.683  -5.084 -28.663  1.00  0.00    -0.456 OA
BRANCH   3   4
ATOM      4  C   UNL     1     -10.712  -4.797 -27.692  1.00  0.00     0.211 C 
ATOM      5  C   UNL     1     -11.525  -4.733 -24.832  1.00  0.00     0.082 C 
ATOM      6  C   UNL     1     -12.003  -5.848 -25.762  1.00  0.00     0.150 C 
ATOM      7  C   UNL     1     -11.201  -3.447 -25.602  1.00  0.00     0.167 C 
ATOM      8  C   UNL     1     -11.033  -6.095 -26.929  1.00  0.00     0.184 C 
ATOM      9  C   UNL     1     -10.209  -3.713 -26.733  1.00  0.00     0.095 C 
BRANCH   6  10
ATOM     10  O   UNL     1     -13.300  -5.544 -26.301  1.00  0.00    -0.390 OA
ATOM     11  H   UNL     1     -13.888  -6.310 -26.142  1.00  0.00     0.211 HD
ENDBRANCH   6  10
BRANCH   7  12
ATOM     12  O   UNL     1     -12.433  -2.931 -26.153  1.00  0.00    -0.378 OA
ATOM     13  H   UNL     1     -13.049  -3.689 -26.252  1.00  0.00     0.212 HD
ENDBRANCH   7  12
BRANCH   7  14
ATOM     14  C   UNL     1     -10.640  -2.411 -24.615  1.00  0.00     0.335 C 
ATOM     15  O   UNL     1     -11.132  -1.318 -24.389  1.00  0.00    -0.249 OA
BRANCH  14  16
ATOM     16  O   UNL     1      -9.499  -2.849 -24.026  1.00  0.00    -0.479 OA
ATOM     17  H   UNL     1      -8.949  -3.329 -24.686  1.00  0.00     0.296 HD
ENDBRANCH  14  16
ENDBRANCH   7  14
BRANCH   8  18
ATOM     18  O   UNL     1     -11.626  -7.046 -27.825  1.00  0.00    -0.387 OA
ATOM     19  H   UNL     1     -11.574  -7.911 -27.368  1.00  0.00     0.211 HD
ENDBRANCH   8  18
ENDBRANCH   3   4
ENDBRANCH   1   3
BRANCH   1  20
ATOM     20  C   UNL     1      -9.280  -3.819 -30.600  1.00  0.00     0.094 C 
ATOM     21  C   UNL     1      -9.807  -2.626 -30.918  1.00  0.00     0.016 C 
BRANCH  21  22
ATOM     22  C   UNL     1      -9.035  -1.545 -31.545  1.00  0.00    -0.021 A 
ATOM     23  C   UNL     1      -7.737  -1.217 -31.120  1.00  0.00     0.058 A 
ATOM     24  C   UNL     1      -9.595  -0.862 -32.636  1.00  0.00     0.012 A 
ATOM     25  C   UNL     1      -7.038  -0.206 -31.772  1.00  0.00     0.157 A 
ATOM     26  C   UNL     1      -8.886   0.154 -33.283  1.00  0.00     0.051 A 
ATOM     27  C   UNL     1      -7.612   0.474 -32.841  1.00  0.00     0.157 A 
BRANCH  25  28
ATOM     28  O   UNL     1      -5.771   0.153 -31.398  1.00  0.00    -0.504 OA
ATOM     29  H   UNL     1      -5.372   0.663 -32.123  1.00  0.00     0.293 HD
ENDBRANCH  25  28
BRANCH  27  30
ATOM     30  O   UNL     1      -6.917   1.464 -33.474  1.00  0.00    -0.504 OA
ATOM     31  H   UNL     1      -5.978   1.259 -33.291  1.00  0.00     0.293 HD
ENDBRANCH  27  30
ENDBRANCH  21  22
ENDBRANCH   1  20
TORSDOF 11
ENDMDL
MODEL 10
REMARK VINA RESULT:      -7.6      4.897      8.236
REMARK SMILES O=C(/C=C/c1ccc(O)c(O)c1)O[C@@H]1C[C@](O)(C(=O)O)C[C@@H](O)[C@H]1O
REMARK SMILES IDX 2 1 1 2 13 3 14 4 21 5 22 6 16 7 24 8 15 9 23 10 17 12 18 14
REMARK SMILES IDX 19 15 20 16 25 18 3 20 4 21 5 22 12 23 6 24 10 25 7 26 8 27
REMARK SMILES IDX 11 28 9 30
REMARK H PARENT 23 11 17 13 20 17 25 19 11 29 9 31
ROOT
ATOM      1  C   UNL     1      -8.043  -1.288 -25.828  1.00  0.00     0.331 C 
ATOM      2  O   UNL     1      -7.873  -1.402 -24.622  1.00  0.00    -0.247 OA
ENDROOT
BRANCH   1   3
ATOM      3  O   UNL     1      -9.203  -1.515 -26.488  1.00  0.00    -0.456 OA
BRANCH   3   4
ATOM      4  C   UNL     1      -9.987  -2.628 -26.011  1.00  0.00     0.211 C 
ATOM      5  C   UNL     1     -12.474  -4.242 -26.254  1.00  0.00     0.082 C 
ATOM      6  C   UNL     1     -12.303  -3.224 -25.127  1.00  0.00     0.150 C 
ATOM      7  C   UNL     1     -11.124  -4.768 -26.759  1.00  0.00     0.167 C 
ATOM      8  C   UNL     1     -11.337  -2.088 -25.503  1.00  0.00     0.184 C 
ATOM      9  C   UNL     1     -10.196  -3.622 -27.159  1.00  0.00     0.095 C 
BRANCH   6  10
ATOM     10  O   UNL     1     -11.818  -3.860 -23.933  1.00  0.00    -0.390 OA
ATOM     11  H   UNL     1     -11.025  -4.387 -24.163  1.00  0.00     0.211 HD
ENDBRANCH   6  10
BRANCH   7  12
ATOM     12  O   UNL     1     -10.515  -5.533 -25.694  1.00  0.00    -0.378 OA
ATOM     13  H   UNL     1      -9.699  -5.061 -25.425  1.00  0.00     0.212 HD
ENDBRANCH   7  12
BRANCH   7  14
ATOM     14  C   UNL     1     -11.377  -5.708 -27.948  1.00  0.00     0.335 C 
ATOM     15  O   UNL     1     -11.164  -5.435 -29.117  1.00  0.00    -0.249 OA
BRANCH  14  16
ATOM     16  O   UNL     1     -11.894  -6.896 -27.544  1.00  0.00    -0.479 OA
ATOM     17  H   UNL     1     -11.214  -7.602 -27.639  1.00  0.00     0.296 HD
ENDBRANCH  14  16
ENDBRANCH   7  14
BRANCH   8  18
ATOM     18  O   UNL     1     -11.122  -1.267 -24.347  1.00  0.00    -0.387 OA
ATOM     19  H   UNL     1     -10.641  -0.475 -24.667  1.00  0.00     0.211 HD
ENDBRANCH   8  18
ENDBRANCH   3   4
ENDBRANCH   1   3
BRANCH   1  20
ATOM     20  C   UNL     1      -6.946  -0.918 -26.745  1.00  0.00     0.094 C 
ATOM     21  C   UNL     1      -5.644  -1.095 -26.472  1.00  0.00     0.016 C 
BRANCH  21  22
ATOM     22  C   UNL     1      -4.568  -0.730 -27.403  1.00  0.00    -0.021 A 
ATOM     23  C   UNL     1      -3.533   0.145 -27.035  1.00  0.00     0.058 A 
ATOM     24  C   UNL     1      -4.549  -1.322 -28.675  1.00  0.00     0.012 A 
ATOM     25  C   UNL     1      -2.520   0.430 -27.946  1.00  0.00     0.157 A 
ATOM     26  C   UNL     1      -3.528  -1.028 -29.585  1.00  0.00     0.051 A 
ATOM     27  C   UNL     1      -2.523  -0.150 -29.210  1.00  0.00     0.157 A 
BRANCH  25  28
ATOM     28  O   UNL     1      -1.490   1.277 -27.639  1.00  0.00    -0.504 OA
ATOM     29  H   UNL     1      -0.714   1.016 -28.164  1.00  0.00     0.293 HD
ENDBRANCH  25  28
BRANCH  27  30
ATOM     30  O   UNL     1      -1.524   0.135 -30.096  1.00  0.00    -0.504 OA
ATOM     31  H   UNL     1      -1.985   0.516 -30.870  1.00  0.00     0.293 HD
ENDBRANCH  27  30
ENDBRANCH  21  22
ENDBRANCH   1  20
TORSDOF 11
ENDMDL
