MODEL 1
REMARK VINA RESULT:      -3.2      0.000      0.000
REMARK SMILES [2H]C([2H])(Br)Br
REMARK SMILES IDX 2 1 4 2 5 3
REMARK H PARENT
ROOT
ATOM      1  C   UNL     1       3.850  -0.940 -25.175  1.00  0.00     0.160 C 
ATOM      2  Br  UNL     1       5.245  -0.186 -26.307  1.00  0.00    -0.080 Br
ATOM      3  Br  UNL     1       4.595  -1.988 -23.712  1.00  0.00    -0.080 Br
ENDROOT
TORSDOF 0
ENDMDL
MODEL 2
REMARK VINA RESULT:      -3.2      0.076      2.634
REMARK SMILES [2H]C([2H])(Br)Br
REMARK SMILES IDX 2 1 4 2 5 3
REMARK H PARENT
ROOT
ATOM      1  C   UNL     1       3.901  -0.984 -25.198  1.00  0.00     0.160 C 
ATOM      2  Br  UNL     1       4.617  -1.994 -23.694  1.00  0.00    -0.080 Br
ATOM      3  Br  UNL     1       5.315  -0.142 -26.241  1.00  0.00    -0.080 Br
ENDROOT
TORSDOF 0
ENDMDL
MODEL 3
REMARK VINA RESULT:      -2.9      2.149      3.418
REMARK SMILES [2H]C([2H])(Br)Br
REMARK SMILES IDX 2 1 4 2 5 3
REMARK H PARENT
ROOT
ATOM      1  C   UNL     1       5.759   0.085 -26.250  1.00  0.00     0.160 C 
ATOM      2  Br  UNL     1       4.143  -0.941 -25.891  1.00  0.00    -0.080 Br
ATOM      3  Br  UNL     1       6.058   0.317 -28.161  1.00  0.00    -0.080 Br
ENDROOT
TORSDOF 0
ENDMDL
MODEL 4
REMARK VINA RESULT:      -2.9      2.150      2.329
REMARK SMILES [2H]C([2H])(Br)Br
REMARK SMILES IDX 2 1 4 2 5 3
REMARK H PARENT
ROOT
ATOM      1  C   UNL     1       5.757   0.094 -26.250  1.00  0.00     0.160 C 
ATOM      2  Br  UNL     1       6.060   0.314 -28.161  1.00  0.00    -0.080 Br
ATOM      3  Br  UNL     1       4.142  -0.934 -25.888  1.00  0.00    -0.080 Br
ENDROOT
TORSDOF 0
ENDMDL
MODEL 5
REMARK VINA RESULT:      -2.9      4.085      4.737
REMARK SMILES [2H]C([2H])(Br)Br
REMARK SMILES IDX 2 1 4 2 5 3
REMARK H PARENT
ROOT
ATOM      1  C   UNL     1       6.010  -3.004 -20.889  1.00  0.00     0.160 C 
ATOM      2  Br  UNL     1       5.105  -2.222 -22.427  1.00  0.00    -0.080 Br
ATOM      3  Br  UNL     1       6.646  -1.638 -19.654  1.00  0.00    -0.080 Br
ENDROOT
TORSDOF 0
ENDMDL
MODEL 6
REMARK VINA RESULT:      -2.9      4.136      5.133
REMARK SMILES [2H]C([2H])(Br)Br
REMARK SMILES IDX 2 1 4 2 5 3
REMARK H PARENT
ROOT
ATOM      1  C   UNL     1       6.039  -3.013 -20.833  1.00  0.00     0.160 C 
ATOM      2  Br  UNL     1       6.674  -1.634 -19.613  1.00  0.00    -0.080 Br
ATOM      3  Br  UNL     1       5.130  -2.248 -22.378  1.00  0.00    -0.080 Br
ENDROOT
TORSDOF 0
ENDMDL
MODEL 7
REMARK VINA RESULT:      -2.6     10.966     11.454
REMARK SMILES [2H]C([2H])(Br)Br
REMARK SMILES IDX 2 1 4 2 5 3
REMARK H PARENT
ROOT
ATOM      1  C   UNL     1      -1.894 -10.455 -27.691  1.00  0.00     0.160 C 
ATOM      2  Br  UNL     1      -0.652  -9.981 -26.267  1.00  0.00    -0.080 Br
ATOM      3  Br  UNL     1      -3.408  -9.231 -27.767  1.00  0.00    -0.080 Br
ENDROOT
TORSDOF 0
ENDMDL
MODEL 8
REMARK VINA RESULT:      -2.5     10.966     11.352
REMARK SMILES [2H]C([2H])(Br)Br
REMARK SMILES IDX 2 1 4 2 5 3
REMARK H PARENT
ROOT
ATOM      1  C   UNL     1      -1.892 -10.453 -27.703  1.00  0.00     0.160 C 
ATOM      2  Br  UNL     1      -3.408  -9.231 -27.767  1.00  0.00    -0.080 Br
ATOM      3  Br  UNL     1      -0.643  -9.982 -26.283  1.00  0.00    -0.080 Br
ENDROOT
TORSDOF 0
ENDMDL
MODEL 9
REMARK VINA RESULT:      -2.5      6.056      6.689
REMARK SMILES [2H]C([2H])(Br)Br
REMARK SMILES IDX 2 1 4 2 5 3
REMARK H PARENT
ROOT
ATOM      1  C   UNL     1       6.529  -1.505 -18.870  1.00  0.00     0.160 C 
ATOM      2  Br  UNL     1       8.218  -0.606 -18.504  1.00  0.00    -0.080 Br
ATOM      3  Br  UNL     1       6.714  -2.847 -20.270  1.00  0.00    -0.080 Br
ENDROOT
TORSDOF 0
ENDMDL
MODEL 10
REMARK VINA RESULT:      -2.5      5.994      6.653
REMARK SMILES [2H]C([2H])(Br)Br
REMARK SMILES IDX 2 1 4 2 5 3
REMARK H PARENT
ROOT
ATOM      1  C   UNL     1       6.500  -1.359 -19.037  1.00  0.00     0.160 C 
ATOM      2  Br  UNL     1       6.715  -2.855 -20.265  1.00  0.00    -0.080 Br
ATOM      3  Br  UNL     1       8.217  -0.608 -18.506  1.00  0.00    -0.080 Br
ENDROOT
TORSDOF 0
ENDMDL
